
Running Job 1 of 1 c4h2.inp
qchem c4h2.inp_67618.0 /Users/ericg/scr/qchem67618/ 1
                  Welcome to Q-Chem
     A Quantum Leap Into The Future Of Chemistry


 Q-Chem 4.2, Q-Chem, Inc., Pleasanton, CA (2014).

 Y. Shao,  Z. Gan,  E. Epifanovsky,  A. T. B. Gilbert,  M. Wormit,  
 J. Kussmann,  A. W. Lange,  A. Behn,  J. Deng,  X. Feng,  D. Ghosh,  
 M. Goldey,  P. R. Horn,  L. D. Jacobson,  I. Kaliman,  R. Z. Khaliullin,  
 T. Kus,  A. Landau,  J. Liu,  E. I. Proynov,  Y. M. Rhee,  R. M. Richard,  
 M. A. Rohrdanz,  R. P. Steele,  E. J. Sundstrom,  H. L. Woodcock III,  
 P. M. Zimmerman,  D. Zuev,  B. Albrecht,  E. Alguire,  B. Austin,  
 G. J. O. Beran,  Y. A. Bernard,  E. Berquist,  K. Brandhorst,  
 K. B. Bravaya,  S. T. Brown,  D. Casanova,  C.-M. Chang,  Y. Chen,  
 S. H. Chien,  K. D. Closser,  D. L. Crittenden,  M. Diedenhofen,  
 R. A. DiStasio Jr.,  H. Do,  A. D. Dutoi,  R. G. Edgar,  S. Fatehi,  
 L. Fusti-Molnar,  A. Ghysels,  A. Golubeva-Zadorozhnaya,  J. Gomes,  
 M. W. D. Hanson-Heine,  P. H. P. Harbach,  A. W. Hauser,  E. G. Hohenstein,  
 Z. C. Holden,  T.-C. Jagau,  H. Ji,  B. Kaduk,  K. Khistyaev,  Jaehoon Kim,  
 Jihan Kim,  R. A. King,  P. Klunzinger,  D. Kosenkov,  T. Kowalczyk,  
 C. M. Krauter,  K. U. Lao,  A. Laurent,  K. V. Lawler,  S. V. Levchenko,  
 C. Y. Lin,  F. Liu,  E. Livshits,  R. C. Lochan,  A. Luenser,  P. Manohar,  
 S. F. Manzer,  S.-P. Mao,  N. Mardirossian,  A. V. Marenich,  S. A. Maurer,  
 N. J. Mayhall,  C. M. Oana,  R. Olivares-Amaya,  D. P. O'Neill,  
 J. A. Parkhill,  T. M. Perrine,  R. Peverati,  P. A. Pieniazek,  A. Prociuk,  
 D. R. Rehn,  E. Rosta,  N. J. Russ,  N. Sergueev,  S. M. Sharada,  
 S. Sharma,  D. W. Small,  A. Sodt,  T. Stein,  D. Stuck,  Y.-C. Su,  
 A. J. W. Thom,  T. Tsuchimochi,  L. Vogt,  O. Vydrov,  T. Wang,  
 M. A. Watson,  J. Wenzel,  A. White,  C. F. Williams,  V. Vanovschi,  
 S. Yeganeh,  S. R. Yost,  Z.-Q. You,  I. Y. Zhang,  X. Zhang,  Y. Zhao,  
 B. R. Brooks,  G. K. L. Chan,  D. M. Chipman,  C. J. Cramer,  
 W. A. Goddard III,  M. S. Gordon,  W. J. Hehre,  A. Klamt,  
 H. F. Schaefer III,  M. W. Schmidt,  C. D. Sherrill,  D. G. Truhlar,  
 A. Warshel,  X. Xu,  A. Aspuru-Guzik,  R. Baer,  A. T. Bell,  N. A. Besley,  
 J.-D. Chai,  A. Dreuw,  B. D. Dunietz,  T. R. Furlani,  S. R. Gwaltney,  
 C.-P. Hsu,  Y. Jung,  J. Kong,  D. S. Lambrecht,  W. Liang,  C. Ochsenfeld,  
 V. A. Rassolov,  L. V. Slipchenko,  J. E. Subotnik,  T. Van Voorhis,  
 J. M. Herbert,  A. I. Krylov,  P. M. W. Gill,  M. Head-Gordon

 Contributors to earlier versions of Q-Chem not listed above: 
 R. D. Adamson,  J. Baker,  E. F. C. Byrd,  A. K. Chakraborty,  C.-L. Cheng,  
 H. Dachsel,  R. J. Doerksen,  G. Hawkins,  A. Heyden,  S. Hirata,  
 G. Kedziora,  F. J. Keil,  C. Kelley,  P. P. Korambath,  W. Kurlancheek,  
 A. M. Lee,  M. S. Lee,  D. Liotard,  I. Lotan,  P. E. Maslen,  N. Nair,  
 D. Neuhauser,  R. Olson,  B. Peters,  J. Ritchie,  N. E. Schultz,  
 N. Shenvi,  A. C. Simmonett,  K. S. Thanthiriwatte,  Q. Wu,  W. Zhang

 Q-Chem 4.2.0.0  for Mac (Intel) OS X

 Parts of Q-Chem use Armadillo 4.100.2 (Dirt Cruiser).
 http://arma.sourceforge.net/

 Q-Chem begins on Thu Jul 31 13:19:56 2014  

Host: electron.local
0

     Scratch files written to /Users/ericg/scr/qchem67618//
 May1314 814_zgan 0   
Processing $rem in /opt/qchem/config/preferences.
 MEM_TOTAL  2000 
Here CATS
Finally everything over in PARseQInput

--------------------------------------------------------------
User input:
--------------------------------------------------------------
$molecule
0 1
H     0.000000    0.000000    2.933869
C     0.000000    0.000000    1.878441
C     0.000000    0.000000    0.693074
C     0.000000    0.000000   -0.693074
C     0.000000    0.000000   -1.878441
H     0.000000    0.000000   -2.933869
$end

$rem
basis = 6-311++g**
method = hf
nbo = true
run_nbo6 = true
$end

$nbo
$end

--------------------------------------------------------------
 ----------------------------------------------------------------
             Standard Nuclear Orientation (Angstroms)
    I     Atom           X                Y                Z
 ----------------------------------------------------------------
    1      H       0.0000000000     0.0000000000     2.9338690000
    2      C       0.0000000000     0.0000000000     1.8784410000
    3      C       0.0000000000     0.0000000000     0.6930740000
    4      C       0.0000000000     0.0000000000    -0.6930740000
    5      C       0.0000000000     0.0000000000    -1.8784410000
    6      H       0.0000000000     0.0000000000    -2.9338690000
 ----------------------------------------------------------------
 Molecular Point Group                 D*h   NOp =***
 Largest Abelian Subgroup              D2h   NOp =  1
 Nuclear Repulsion Energy =    77.7843112103 hartrees
 There are       13 alpha and       13 beta electrons
 Requested basis set is 6-311++G(d,p)
 There are 34 shells and 102 basis functions

Total QAlloc Memory Limit   2000 MB
Mega-Array Size        61 MB
MEM_STATIC part        62 MB

                       Distance Matrix (Angstroms)
             H (  1)   C (  2)   C (  3)   C (  4)   C (  5)
   C (  2)  1.055428
   C (  3)  2.240795  1.185367
   C (  4)  3.626943  2.571515  1.386148
   C (  5)  4.812310  3.756882  2.571515  1.185367
   H (  6)  5.867738  4.812310  3.626943  2.240795  1.055428
 
 A cutoff of  1.0D-08 yielded    538 shell pairs
 There are      5087 function pairs (      5503 Cartesian)
 Smallest overlap matrix eigenvalue = 4.48E-08

 Q-Chem warning in module /scratch/svnadmin/814_zgan/qchem/stvman/mkSTV.C, line 251:

 Overlap eigenvalue is smaller than square root of threshold

 Linear dependence detected in AO basis
 Number of orthogonalized atomic orbitals = 100
 Maximum deviation from orthogonality = 1.313E-11

  Scale SEOQF with 1.000000e-01/1.000000e-01/1.000000e-01

 Standard Electronic Orientation quadrupole field applied
 Nucleus-field energy     =    -0.0000000070 hartrees
 Guess from superposition of atomic densities
 Warning:  Energy on first SCF cycle will be non-variational
 A restricted Hartree-Fock SCF calculation will be
 performed using Pulay DIIS extrapolation
 SCF converges when DIIS error is below 1.0E-05
 ---------------------------------------
  Cycle       Energy         DIIS Error
 ---------------------------------------
    1    -153.7371732352      6.88E-02
    2    -152.4940632473      4.85E-03
    3    -152.5345901202      1.12E-03
    4    -152.5374168352      2.76E-04
    5    -152.5375408814      1.21E-04
    6    -152.5375583066      2.99E-05
    7    -152.5375598422      4.77E-06 Convergence criterion met
 ---------------------------------------
 SCF time:  CPU 2.97 s  wall 3.07 s
 SCF   energy in the final basis set = -152.5375598422
 Total energy in the final basis set = -152.5375598422
 Analysis of SCF Wavefunction
 
 --------------------------------------------------------------
                    Orbital Energies (a.u.)
 --------------------------------------------------------------
 
 Alpha MOs
 -- Occupied --
-11.264 -11.263 -11.252 -11.252  -1.097  -1.032  -0.847  -0.736
 -0.709  -0.496  -0.496  -0.379  -0.379
 -- Virtual --
  0.040   0.044   0.089   0.089   0.119   0.120   0.120   0.137
  0.137   0.147   0.180   0.182   0.212   0.212   0.250   0.250
  0.254   0.311   0.346   0.357   0.357   0.370   0.481   0.565
  0.635   0.681   0.681   0.726   0.753   0.753   0.831   0.831
  0.838   0.856   0.907   0.907   1.020   1.021   1.246   1.287
  1.295   1.295   1.320   1.320   1.416   1.429   1.440   1.440
  1.586   1.586   1.749   1.752   1.752   1.799   1.799   1.974
  1.974   2.157   2.157   2.176   2.357   2.582   2.582   2.812
  2.949   2.963   3.035   3.035   3.081   3.096   3.096   3.336
  3.336   3.368   3.368   3.379   3.453   3.453   3.688   3.828
  4.051   4.165   4.583  24.535  24.973  26.104  26.701
 --------------------------------------------------------------
 
          Ground-State Mulliken Net Atomic Charges

     Atom                 Charge (a.u.)
  ----------------------------------------
      1 H                     0.192526
      2 C                    -0.546029
      3 C                     0.353503
      4 C                     0.353503
      5 C                    -0.546029
      6 H                     0.192526
  ----------------------------------------
  Sum of atomic charges =     0.000000

 -----------------------------------------------------------------
                    Cartesian Multipole Moments
 -----------------------------------------------------------------
    Charge (ESU x 10^10)
                 0.0000
    Dipole Moment (Debye)
         X       0.0000      Y       0.0000      Z       0.0000
       Tot       0.0000
    Quadrupole Moments (Debye-Ang)
        XX     -25.2094     XY       0.0000     YY     -25.2094
        XZ       0.0000     YZ       0.0000     ZZ     -11.3620
    Octopole Moments (Debye-Ang^2)
       XXX       0.0000    XXY       0.0000    XYY       0.0000
       YYY       0.0000    XXZ       0.0000    XYZ       0.0000
       YYZ       0.0000    XZZ       0.0000    YZZ       0.0000
       ZZZ       0.0000
    Hexadecapole Moments (Debye-Ang^3)
      XXXX     -30.2228   XXXY       0.0000   XXYY     -10.0743
      XYYY       0.0000   YYYY     -30.2228   XXXZ       0.0000
      XXYZ       0.0000   XYYZ       0.0000   YYYZ       0.0000
      XXZZ     -69.1504   XYZZ       0.0000   YYZZ     -69.1504
      XZZZ       0.0000   YZZZ       0.0000   ZZZZ    -196.9444
 -----------------------------------------------------------------

 Begin NBO analysis for the ground state 

 fchar_ptr            1 /
 fchar_ptr            2 U
 fchar_ptr            3 s
 fchar_ptr            4 e
 fchar_ptr            5 r
 fchar_ptr            6 s
 fchar_ptr            7 /
 fchar_ptr            8 e
 fchar_ptr            9 r
 fchar_ptr           10 i
 fchar_ptr           11 c
 fchar_ptr           12 g
 fchar_ptr           13 /
 fchar_ptr           14 n
 fchar_ptr           15 b
 fchar_ptr           16 o
 fchar_ptr           17 6
 fchar_ptr           18 /
 fchar_ptr           19 b
 fchar_ptr           20 i
 fchar_ptr           21 n
 fchar_ptr           22 /
 fchar_ptr           23 n
 fchar_ptr           24 b
 fchar_ptr           25 o
 fchar_ptr           26 6
 fchar_ptr           27 .
 fchar_ptr           28 i
 fchar_ptr           29 4
 fchar_ptr           30 .
 fchar_ptr           31 e
 fchar_ptr           32 x
 fchar_ptr           33 e
 fchar_ptr           34  
 i=           1 atno=           1 znuc=           1
 i=           2 atno=           6 znuc=           6
 i=           3 atno=           6 znuc=           6
 i=           4 atno=           6 znuc=           6
 i=           5 atno=           6 znuc=           6
 i=           6 atno=           1 znuc=           1
 Carts
             1             2             3             4             5
    1    0.00000000    0.00000000    0.00000000    0.00000000    0.00000000
    2    0.00000000    0.00000000    0.00000000    0.00000000    0.00000000
    3    5.54420890    3.54973903    1.30972004   -1.30972004   -3.54973903
             6
    1    0.00000000
    2    0.00000000
    3   -5.54420890
 Carts
             1             2             3             4             5
    1    0.00000000    0.00000000    0.00000000    0.00000000    0.00000000
    2    0.00000000    0.00000000    0.00000000    0.00000000    0.00000000
    3    2.93386900    1.87844100    0.69307400   -0.69307400   -1.87844100
             6
    1    0.00000000
    2    0.00000000
    3   -2.93386900
 Sao
             1             2             3             4             5
    1    1.00000000    0.70637722    0.37366396    0.18376594    0.00000000
    2    0.70637722    1.00000000    0.78896323    0.46318054    0.00000000
    3    0.37366396    0.78896323    1.00000000    0.82086640    0.00000000
    4    0.18376594    0.46318054    0.82086640    1.00000000    0.00000000
    5    0.00000000    0.00000000    0.00000000    0.00000000    1.00000000
    6    0.00000000    0.00000000    0.00000000    0.00000000    0.00000000
    7    0.00000000    0.00000000    0.00000000    0.00000000    0.00000000
    8    0.01453592    0.08013418    0.08133238    0.04931769    0.00000000
    9    0.01363863    0.09629401    0.09774600    0.05877823    0.00000000
   10    0.00000000    0.00000000    0.00000000    0.00000000    0.10637955
   11    0.00000000    0.00000000    0.00000000    0.00000000    0.00000000
   12    0.12341495    0.18262421    0.06620715    0.01495104    0.00000000
   13    0.20522869    0.44784834    0.47333674    0.31683531    0.00000000
   14    0.00000000    0.00000000    0.00000000    0.00000000    0.29254354
   15    0.00000000    0.00000000    0.00000000    0.00000000    0.00000000
   16    0.40997655    0.50010814    0.23009457    0.06090084    0.00000000
   17    0.27570987    0.59522020    0.76930496    0.63478460    0.00000000
   18    0.00000000    0.00000000    0.00000000    0.00000000    0.28800838
   19    0.00000000    0.00000000    0.00000000    0.00000000    0.00000000
   20    0.37551234    0.62615988    0.48443545    0.19154230    0.00000000
   21    0.17826920    0.44569056    0.77529708    0.91777682    0.00000000
   22    0.00000000    0.00000000    0.00000000    0.00000000    0.11952905
   23    0.00000000    0.00000000    0.00000000    0.00000000    0.00000000
   24    0.14370910    0.32798456    0.45378205    0.34564575    0.00000000
   25    0.00000000    0.00000000    0.00000000    0.00000000    0.00000000
   26    0.00000000    0.00000000    0.00000000    0.00000000    0.00000000
   27    0.43073562    0.26563031    0.04672224    0.00453652    0.00000000
   28    0.00000000    0.00000000    0.00000000    0.00000000    0.43822589
   29    0.00000000    0.00000000    0.00000000    0.00000000    0.00000000
   30    0.00000055    0.00135715    0.02033424    0.03002337    0.00000000
   31    0.00000001    0.00134504    0.02398511    0.03569538    0.00000000
   32    0.00000000    0.00000000    0.00000000    0.00000000    0.00009962
   33    0.00000000    0.00000000    0.00000000    0.00000000    0.00000000
   34    0.00002913    0.00912972    0.03667333    0.01943158    0.00000000
   35    0.00166546    0.02962175    0.14511351    0.19851927    0.00000000
   36    0.00000000    0.00000000    0.00000000    0.00000000    0.00484009
   37    0.00000000    0.00000000    0.00000000    0.00000000    0.00000000
   38    0.00695679    0.07022910    0.14976748    0.08101508    0.00000000
   39    0.04481629    0.14618955    0.33197181    0.42435181    0.00000000
   40    0.00000000    0.00000000    0.00000000    0.00000000    0.05255481
   41    0.00000000    0.00000000    0.00000000    0.00000000    0.00000000
   42    0.12945427    0.32651070    0.44382535    0.27185535    0.00000000
   43    0.09880668    0.26005690    0.50510730    0.69662806    0.00000000
   44    0.00000000    0.00000000    0.00000000    0.00000000    0.06709704
   45    0.00000000    0.00000000    0.00000000    0.00000000    0.00000000
   46    0.16910371    0.40631407    0.62767716    0.55701722    0.00000000
   47    0.00000000    0.00000000    0.00000000    0.00000000    0.00000000
   48    0.00000000    0.00000000    0.00000000    0.00000000    0.00000000
   49    0.00602684    0.06020770    0.06147019    0.01271696    0.00000000
   50    0.00000000    0.00000000    0.00000000    0.00000000    0.00796272
   51    0.00000000    0.00000000    0.00000000    0.00000000    0.00000000
   52    0.00000000    0.00000035    0.00113892    0.01068551    0.00000000
   53    0.00000000    0.00000018    0.00128759    0.01263903    0.00000000
   54    0.00000000    0.00000000    0.00000000    0.00000000    0.00000000
   55    0.00000000    0.00000000    0.00000000    0.00000000    0.00000000
   56    0.00000000    0.00000625    0.00362352    0.01132331    0.00000000
   57    0.00000008    0.00010381    0.01238372    0.07501710    0.00000000
   58    0.00000000    0.00000000    0.00000000    0.00000000    0.00000095
   59    0.00000000    0.00000000    0.00000000    0.00000000    0.00000000
   60    0.00000055    0.00039837    0.02068709    0.04955210    0.00000000
   61    0.00102650    0.00786316    0.05771636    0.18350255    0.00000000
   62    0.00000000    0.00000000    0.00000000    0.00000000    0.00152298
   63    0.00000000    0.00000000    0.00000000    0.00000000    0.00000000
   64    0.00479078    0.02842608    0.12489597    0.19027974    0.00000000
   65    0.02892702    0.08472887    0.20702271    0.39241937    0.00000000
   66    0.00000000    0.00000000    0.00000000    0.00000000    0.02016898
   67    0.00000000    0.00000000    0.00000000    0.00000000    0.00000000
   68    0.08012708    0.21427106    0.41639862    0.50787484    0.00000000
   69    0.00000000    0.00000000    0.00000000    0.00000000    0.00000000
   70    0.00000000    0.00000000    0.00000000    0.00000000    0.00000000
   71    0.00000000    0.00031242    0.01240665    0.01239485    0.00000000
   72    0.00000000    0.00000000    0.00000000    0.00000000    0.00000064
   73    0.00000000    0.00000000    0.00000000    0.00000000    0.00000000
   74    0.00000000    0.00000000    0.00003309    0.00299930    0.00000000
   75    0.00000000    0.00000000    0.00003528    0.00352488    0.00000000
   76    0.00000000    0.00000000    0.00000000    0.00000000    0.00000000
   77    0.00000000    0.00000000    0.00000000    0.00000000    0.00000000
   78    0.00000000    0.00000000    0.00015451    0.00427676    0.00000000
   79    0.00000000    0.00000010    0.00060013    0.02266441    0.00000000
   80    0.00000000    0.00000000    0.00000000    0.00000000    0.00000000
   81    0.00000000    0.00000000    0.00000000    0.00000000    0.00000000
   82    0.00000000    0.00000050    0.00133016    0.01986365    0.00000000
   83    0.00000994    0.00021599    0.00671125    0.06544076    0.00000000
   84    0.00000000    0.00000000    0.00000000    0.00000000    0.00001955
   85    0.00000000    0.00000000    0.00000000    0.00000000    0.00000000
   86    0.00006148    0.00103603    0.01926930    0.09003506    0.00000000
   87    0.00638576    0.02133121    0.06911775    0.19372804    0.00000000
   88    0.00000000    0.00000000    0.00000000    0.00000000    0.00459878
   89    0.00000000    0.00000000    0.00000000    0.00000000    0.00000000
   90    0.02346744    0.07157484    0.18445641    0.33266844    0.00000000
   91    0.00000000    0.00000000    0.00000000    0.00000000    0.00000000
   92    0.00000000    0.00000000    0.00000000    0.00000000    0.00000000
   93    0.00000000    0.00000000    0.00093331    0.00646720    0.00000000
   94    0.00000000    0.00000000    0.00000000    0.00000000    0.00000000
   95    0.00000000    0.00000000    0.00000000    0.00000000    0.00000000
   96    0.00000000    0.00000000    0.00000327    0.00249315    0.00000000
   97    0.00000000    0.00000000    0.00005322    0.00860367    0.00000000
   98    0.00000327    0.00005322    0.00180687    0.03095622    0.00000000
   99    0.00249315    0.00860367    0.03095622    0.10935518    0.00000000
  100    0.00000000    0.00000000    0.00000000    0.00000000    0.00000000
  101    0.00000000    0.00000000    0.00000000    0.00000000    0.00000000
  102    0.00000000    0.00000000    0.00001818    0.00348312    0.00000000
             6             7             8             9            10
    1    0.00000000    0.00000000    0.01453592    0.01363863    0.00000000
    2    0.00000000    0.00000000    0.08013418    0.09629401    0.00000000
    3    0.00000000    0.00000000    0.08133238    0.09774600    0.00000000
    4    0.00000000    0.00000000    0.04931769    0.05877823    0.00000000
    5    0.00000000    0.00000000    0.00000000    0.00000000    0.10637955
    6    1.00000000    0.00000000    0.00000000    0.00000000    0.00000000
    7    0.00000000    1.00000000   -0.09998719   -0.12150919    0.00000000
    8    0.00000000   -0.09998719    1.00000000    0.87844383    0.00000000
    9    0.00000000   -0.12150919    0.87844383    1.00000000    0.00000000
   10    0.00000000    0.00000000    0.00000000    0.00000000    1.00000000
   11    0.10637955    0.00000000    0.00000000    0.00000000    0.00000000
   12    0.00000000   -0.32170401    0.00000000    0.00000000    0.00000000
   13    0.00000000   -0.40569203    0.32917950    0.41879959    0.00000000
   14    0.00000000    0.00000000    0.00000000    0.00000000    0.62912021
   15    0.29254354    0.00000000    0.00000000    0.00000000    0.00000000
   16    0.00000000   -0.39163591    0.00000000    0.00000000    0.00000000
   17    0.00000000   -0.21917495    0.15376127    0.18714545    0.00000000
   18    0.00000000    0.00000000    0.00000000    0.00000000    0.22023025
   19    0.28800838    0.00000000    0.00000000    0.00000000    0.00000000
   20    0.00000000    0.00865035    0.00000000    0.00000000    0.00000000
   21    0.00000000   -0.04989281    0.06556250    0.07831571    0.00000000
   22    0.00000000    0.00000000    0.00000000    0.00000000    0.05734990
   23    0.11952905    0.00000000    0.00000000    0.00000000    0.00000000
   24    0.00000000    0.08017561    0.00000000    0.00000000    0.00000000
   25    0.00000000    0.00000000    0.00000000    0.00000000    0.00000000
   26    0.43822589    0.00000000    0.00000000    0.00000000    0.00000000
   27    0.00000000   -0.18079493    0.00000000    0.00000000    0.00000000
   28    0.00000000    0.00000000    0.00000000    0.00000000    0.00000000
   29    0.00000000    0.00000000    0.00000000    0.00000000    0.00000000
   30    0.00000000   -0.00007630    0.00054938    0.00021335    0.00000000
   31    0.00000000   -0.00002782    0.00021335   -0.00001085    0.00000000
   32    0.00000000    0.00000000    0.00000000    0.00000000    0.01804651
   33    0.00009962    0.00000000    0.00000000    0.00000000    0.00000000
   34    0.00000000   -0.00167476    0.01111511    0.00881760    0.00000000
   35    0.00000000   -0.01425060    0.03975418    0.04577913    0.00000000
   36    0.00000000    0.00000000    0.00000000    0.00000000    0.09850435
   37    0.00484009    0.00000000    0.00000000    0.00000000    0.00000000
   38    0.00000000   -0.04618459    0.10674387    0.13012704    0.00000000
   39    0.00000000   -0.08491254    0.07653222    0.09200837    0.00000000
   40    0.00000000    0.00000000    0.00000000    0.00000000    0.11297609
   41    0.05255481    0.00000000    0.00000000    0.00000000    0.00000000
   42    0.00000000   -0.17722696    0.12489853    0.15286606    0.00000000
   43    0.00000000   -0.05946226    0.05279415    0.06298298    0.00000000
   44    0.00000000    0.00000000    0.00000000    0.00000000    0.04631683
   45    0.06709704    0.00000000    0.00000000    0.00000000    0.00000000
   46    0.00000000   -0.03248010    0.04878513    0.05854492    0.00000000
   47    0.00000000    0.00000000    0.00000000    0.00000000    0.00000000
   48    0.00796272    0.00000000    0.00000000    0.00000000    0.00000000
   49    0.00000000   -0.04705901    0.13533153    0.17178911    0.00000000
   50    0.00000000    0.00000000    0.00000000    0.00000000    0.19626275
   51    0.00000000    0.00000000    0.00000000    0.00000000    0.00000000
   52    0.00000000    0.00000000    0.00000000    0.00000000    0.00000000
   53    0.00000000    0.00000000    0.00000000    0.00000000    0.00000000
   54    0.00000000    0.00000000    0.00000000    0.00000000    0.00000002
   55    0.00000000    0.00000000    0.00000000    0.00000000    0.00000000
   56    0.00000000    0.00000000    0.00000000   -0.00000000    0.00000000
   57    0.00000000   -0.00000452    0.00002210    0.00001240    0.00000000
   58    0.00000000    0.00000000    0.00000000    0.00000000    0.00010892
   59    0.00000095    0.00000000    0.00000000    0.00000000    0.00000000
   60    0.00000000   -0.00002523    0.00012128    0.00007675    0.00000000
   61    0.00000000   -0.00398283    0.00579283    0.00662194    0.00000000
   62    0.00000000    0.00000000    0.00000000    0.00000000    0.00952974
   63    0.00152298    0.00000000    0.00000000    0.00000000    0.00000000
   64    0.00000000   -0.01592214    0.02045042    0.02386821    0.00000000
   65    0.00000000   -0.02893081    0.02365710    0.02808789    0.00000000
   66    0.00000000    0.00000000    0.00000000    0.00000000    0.02098114
   67    0.02016898    0.00000000    0.00000000    0.00000000    0.00000000
   68    0.00000000   -0.05824932    0.04742008    0.05663982    0.00000000
   69    0.00000000    0.00000000    0.00000000    0.00000000    0.00000000
   70    0.00000064    0.00000000    0.00000000    0.00000000    0.00000000
   71    0.00000000   -0.00001110    0.00006067    0.00002522    0.00000000
   72    0.00000000    0.00000000    0.00000000    0.00000000    0.00011469
   73    0.00000000    0.00000000    0.00000000    0.00000000    0.00000000
   74    0.00000000    0.00000000    0.00000000    0.00000000    0.00000000
   75    0.00000000    0.00000000    0.00000000    0.00000000    0.00000000
   76    0.00000000    0.00000000    0.00000000    0.00000000    0.00000000
   77    0.00000000    0.00000000    0.00000000    0.00000000    0.00000000
   78    0.00000000    0.00000000    0.00000000    0.00000000    0.00000000
   79    0.00000000    0.00000000    0.00000000   -0.00000000    0.00000000
   80    0.00000000    0.00000000    0.00000000    0.00000000    0.00000001
   81    0.00000000    0.00000000    0.00000000    0.00000000    0.00000000
   82    0.00000000    0.00000000    0.00000000   -0.00000000    0.00000000
   83    0.00000000   -0.00006784    0.00014245    0.00014950    0.00000000
   84    0.00000000    0.00000000    0.00000000    0.00000000    0.00027123
   85    0.00001955    0.00000000    0.00000000    0.00000000    0.00000000
   86    0.00000000   -0.00037471    0.00073182    0.00078732    0.00000000
   87    0.00000000   -0.00875250    0.00744432    0.00877675    0.00000000
   88    0.00000000    0.00000000    0.00000000    0.00000000    0.00670570
   89    0.00459878    0.00000000    0.00000000    0.00000000    0.00000000
   90    0.00000000   -0.02687882    0.02179771    0.02585685    0.00000000
   91    0.00000000    0.00000000    0.00000000    0.00000000    0.00000000
   92    0.00000000    0.00000000    0.00000000    0.00000000    0.00000000
   93    0.00000000    0.00000000    0.00000000    0.00000000    0.00000000
   94    0.00000000    0.00000000    0.00000000    0.00000000    0.00000000
   95    0.00000000    0.00000000    0.00000000    0.00000000    0.00000000
   96    0.00000000    0.00000000    0.00000000    0.00000000    0.00000000
   97    0.00000000    0.00000000    0.00000000    0.00000000    0.00000000
   98    0.00000000   -0.00001818    0.00003309    0.00003528    0.00000000
   99    0.00000000   -0.00348312    0.00299930    0.00352488    0.00000000
  100    0.00000000    0.00000000    0.00000000    0.00000000    0.00000000
  101    0.00000000    0.00000000    0.00000000    0.00000000    0.00000000
  102    0.00000000    0.00000000    0.00000000    0.00000000    0.00000000
            11            12            13            14            15
    1    0.00000000    0.12341495    0.20522869    0.00000000    0.00000000
    2    0.00000000    0.18262421    0.44784834    0.00000000    0.00000000
    3    0.00000000    0.06620715    0.47333674    0.00000000    0.00000000
    4    0.00000000    0.01495104    0.31683531    0.00000000    0.00000000
    5    0.00000000    0.00000000    0.00000000    0.29254354    0.00000000
    6    0.10637955    0.00000000    0.00000000    0.00000000    0.29254354
    7    0.00000000   -0.32170401   -0.40569203    0.00000000    0.00000000
    8    0.00000000    0.00000000    0.32917950    0.00000000    0.00000000
    9    0.00000000    0.00000000    0.41879959    0.00000000    0.00000000
   10    0.00000000    0.00000000    0.00000000    0.62912021    0.00000000
   11    1.00000000    0.00000000    0.00000000    0.00000000    0.62912021
   12    0.00000000    1.00000000    0.00000000    0.00000000    0.00000000
   13    0.00000000    0.00000000    1.00000000    0.00000000    0.00000000
   14    0.00000000    0.00000000    0.00000000    1.00000000    0.00000000
   15    0.62912021    0.00000000    0.00000000    0.00000000    1.00000000
   16    0.00000000    0.62912021    0.00000000    0.00000000    0.00000000
   17    0.00000000    0.00000000    0.77469678    0.00000000    0.00000000
   18    0.00000000    0.00000000    0.00000000    0.65346087    0.00000000
   19    0.22023025    0.00000000    0.00000000    0.00000000    0.65346087
   20    0.00000000    0.22023025    0.00000000    0.00000000    0.00000000
   21    0.00000000    0.00000000    0.41009644    0.00000000    0.00000000
   22    0.00000000    0.00000000    0.00000000    0.22636537    0.00000000
   23    0.05734990    0.00000000    0.00000000    0.00000000    0.22636537
   24    0.00000000    0.05734990    0.00000000    0.00000000    0.00000000
   25    0.00000000    0.00000000    0.00000000    0.00000000    0.00000000
   26    0.00000000    0.00000000    0.00000000    0.00000000    0.00000000
   27    0.00000000    0.00000000    0.00000000    0.00000000    0.00000000
   28    0.00000000    0.00000000    0.00000000    0.00000000    0.00000000
   29    0.00000000    0.00000000    0.00000000    0.00000000    0.00000000
   30    0.00000000   -0.01111511    0.03975418    0.00000000    0.00000000
   31    0.00000000   -0.00881760    0.04577913    0.00000000    0.00000000
   32    0.00000000    0.00000000    0.00000000    0.09850435    0.00000000
   33    0.01804651    0.00000000    0.00000000    0.00000000    0.09850435
   34    0.00000000   -0.11780544    0.15342127    0.00000000    0.00000000
   35    0.00000000   -0.15342127    0.29732931    0.00000000    0.00000000
   36    0.00000000    0.00000000    0.00000000    0.29732931    0.00000000
   37    0.09850435    0.00000000    0.00000000    0.00000000    0.29732931
   38    0.00000000   -0.26572979    0.46309266    0.00000000    0.00000000
   39    0.00000000   -0.09655985    0.44188010    0.00000000    0.00000000
   40    0.00000000    0.00000000    0.00000000    0.37272822    0.00000000
   41    0.11297609    0.00000000    0.00000000    0.00000000    0.37272822
   42    0.00000000   -0.03783097    0.58052705    0.00000000    0.00000000
   43    0.00000000   -0.02171339    0.33524941    0.00000000    0.00000000
   44    0.00000000    0.00000000    0.00000000    0.18505125    0.00000000
   45    0.04631683    0.00000000    0.00000000    0.00000000    0.18505125
   46    0.00000000    0.02652426    0.28821873    0.00000000    0.00000000
   47    0.00000000    0.00000000    0.00000000    0.00000000    0.00000000
   48    0.19626275    0.00000000    0.00000000    0.00000000    0.38489158
   49    0.00000000   -0.28206990    0.34610507    0.00000000    0.00000000
   50    0.00000000    0.00000000    0.00000000    0.38489158    0.00000000
   51    0.00000000    0.00000000    0.00000000    0.00000000    0.00000000
   52    0.00000000    0.00000000    0.00002210    0.00000000    0.00000000
   53    0.00000000    0.00000000    0.00001240    0.00000000    0.00000000
   54    0.00000000    0.00000000    0.00000000    0.00010892    0.00000000
   55    0.00000002    0.00000000    0.00000000    0.00000000    0.00010892
   56    0.00000000   -0.00000073    0.00036802    0.00000000    0.00000000
   57    0.00000000   -0.00036802    0.00331848    0.00000000    0.00000000
   58    0.00000000    0.00000000    0.00000000    0.00331848    0.00000000
   59    0.00010892    0.00000000    0.00000000    0.00000000    0.00331848
   60    0.00000000   -0.00176606    0.01121259    0.00000000    0.00000000
   61    0.00000000   -0.01766963    0.05516024    0.00000000    0.00000000
   62    0.00000000    0.00000000    0.00000000    0.04652796    0.00000000
   63    0.00952974    0.00000000    0.00000000    0.00000000    0.04652796
   64    0.00000000   -0.05029575    0.15721009    0.00000000    0.00000000
   65    0.00000000   -0.02133801    0.15885722    0.00000000    0.00000000
   66    0.00000000    0.00000000    0.00000000    0.08768614    0.00000000
   67    0.02098114    0.00000000    0.00000000    0.00000000    0.08768614
   68    0.00000000   -0.02121335    0.29627660    0.00000000    0.00000000
   69    0.00000000    0.00000000    0.00000000    0.00000000    0.00000000
   70    0.00011469    0.00000000    0.00000000    0.00000000    0.00523050
   71    0.00000000   -0.00124109    0.01020350    0.00000000    0.00000000
   72    0.00000000    0.00000000    0.00000000    0.00523050    0.00000000
   73    0.00000000    0.00000000    0.00000000    0.00000000    0.00000000
   74    0.00000000    0.00000000    0.00000000    0.00000000    0.00000000
   75    0.00000000    0.00000000   -0.00000000    0.00000000    0.00000000
   76    0.00000000    0.00000000    0.00000000    0.00000001    0.00000000
   77    0.00000000    0.00000000    0.00000000    0.00000000    0.00000001
   78    0.00000000    0.00000000    0.00000003    0.00000000    0.00000000
   79    0.00000000   -0.00000003    0.00000511    0.00000000    0.00000000
   80    0.00000000    0.00000000    0.00000000    0.00000511    0.00000000
   81    0.00000001    0.00000000    0.00000000    0.00000000    0.00000511
   82    0.00000000   -0.00000023    0.00002524    0.00000000    0.00000000
   83    0.00000000   -0.00073471    0.00275353    0.00000000    0.00000000
   84    0.00000000    0.00000000    0.00000000    0.00232261    0.00000000
   85    0.00027123    0.00000000    0.00000000    0.00000000    0.00232261
   86    0.00000000   -0.00335996    0.01146521    0.00000000    0.00000000
   87    0.00000000   -0.00996340    0.05417126    0.00000000    0.00000000
   88    0.00000000    0.00000000    0.00000000    0.02990150    0.00000000
   89    0.00670570    0.00000000    0.00000000    0.00000000    0.02990150
   90    0.00000000   -0.02207721    0.14760391    0.00000000    0.00000000
   91    0.00000000    0.00000000    0.00000000    0.00000000    0.00000000
   92    0.00000000    0.00000000    0.00000000    0.00000000    0.00000512
   93    0.00000000    0.00000000    0.00001460    0.00000000    0.00000000
   94    0.00000000    0.00000000    0.00000000    0.00000512    0.00000000
   95    0.00000000    0.00000000    0.00000000    0.00000000    0.00000000
   96    0.00000000    0.00000000    0.00000000    0.00000000    0.00000000
   97    0.00000000    0.00000000    0.00000010    0.00000000    0.00000000
   98    0.00000000   -0.00015451    0.00060013    0.00000000    0.00000000
   99    0.00000000   -0.00427676    0.02266441    0.00000000    0.00000000
  100    0.00000000    0.00000000    0.00000000    0.00000000    0.00000000
  101    0.00000000    0.00000000    0.00000000    0.00000000    0.00000000
  102    0.00000000    0.00000000    0.00000000    0.00000000    0.00000000
            16            17            18            19            20
    1    0.40997655    0.27570987    0.00000000    0.00000000    0.37551234
    2    0.50010814    0.59522020    0.00000000    0.00000000    0.62615988
    3    0.23009457    0.76930496    0.00000000    0.00000000    0.48443545
    4    0.06090084    0.63478460    0.00000000    0.00000000    0.19154230
    5    0.00000000    0.00000000    0.28800838    0.00000000    0.00000000
    6    0.00000000    0.00000000    0.00000000    0.28800838    0.00000000
    7   -0.39163591   -0.21917495    0.00000000    0.00000000    0.00865035
    8    0.00000000    0.15376127    0.00000000    0.00000000    0.00000000
    9    0.00000000    0.18714545    0.00000000    0.00000000    0.00000000
   10    0.00000000    0.00000000    0.22023025    0.00000000    0.00000000
   11    0.00000000    0.00000000    0.00000000    0.22023025    0.00000000
   12    0.62912021    0.00000000    0.00000000    0.00000000    0.22023025
   13    0.00000000    0.77469678    0.00000000    0.00000000    0.00000000
   14    0.00000000    0.00000000    0.65346087    0.00000000    0.00000000
   15    0.00000000    0.00000000    0.00000000    0.65346087    0.00000000
   16    1.00000000    0.00000000    0.00000000    0.00000000    0.65346087
   17    0.00000000    1.00000000    0.00000000    0.00000000    0.00000000
   18    0.00000000    0.00000000    1.00000000    0.00000000    0.00000000
   19    0.00000000    0.00000000    0.00000000    1.00000000    0.00000000
   20    0.65346087    0.00000000    0.00000000    0.00000000    1.00000000
   21    0.00000000    0.77440773    0.00000000    0.00000000    0.00000000
   22    0.00000000    0.00000000    0.65305457    0.00000000    0.00000000
   23    0.00000000    0.00000000    0.00000000    0.65305457    0.00000000
   24    0.22636537    0.00000000    0.00000000    0.00000000    0.65305457
   25    0.00000000    0.00000000    0.00000000    0.00000000    0.00000000
   26    0.00000000    0.00000000    0.00000000    0.00000000    0.00000000
   27    0.00000000    0.00000000    0.00000000    0.00000000    0.00000000
   28    0.00000000    0.00000000    0.00000000    0.00000000    0.00000000
   29    0.00000000    0.00000000    0.00000000    0.00000000    0.00000000
   30   -0.10674387    0.07653222    0.00000000    0.00000000   -0.12489853
   31   -0.13012704    0.09200837    0.00000000    0.00000000   -0.15286606
   32    0.00000000    0.00000000    0.11297609    0.00000000    0.00000000
   33    0.00000000    0.00000000    0.00000000    0.11297609    0.00000000
   34   -0.26572979    0.09655985    0.00000000    0.00000000   -0.03783097
   35   -0.46309266    0.44188010    0.00000000    0.00000000   -0.58052705
   36    0.00000000    0.00000000    0.37272822    0.00000000    0.00000000
   37    0.00000000    0.00000000    0.00000000    0.37272822    0.00000000
   38   -0.42394103    0.31856811    0.00000000    0.00000000   -0.04579572
   39   -0.31856811    0.69402323    0.00000000    0.00000000   -0.59317662
   40    0.00000000    0.00000000    0.69402323    0.00000000    0.00000000
   41    0.00000000    0.00000000    0.00000000    0.69402323    0.00000000
   42   -0.04579572    0.59317662    0.00000000    0.00000000    0.18703948
   43   -0.08675226    0.65402938    0.00000000    0.00000000   -0.25856266
   44    0.00000000    0.00000000    0.55154004    0.00000000    0.00000000
   45    0.00000000    0.00000000    0.00000000    0.55154004    0.00000000
   46    0.11046909    0.47139727    0.00000000    0.00000000    0.36517879
   47    0.00000000    0.00000000    0.00000000    0.00000000    0.00000000
   48    0.00000000    0.00000000    0.00000000    0.20028068    0.00000000
   49   -0.16388589    0.09882992    0.00000000    0.00000000    0.09420159
   50    0.00000000    0.00000000    0.20028068    0.00000000    0.00000000
   51    0.00000000    0.00000000    0.00000000    0.00000000    0.00000000
   52   -0.00012128    0.00579283    0.00000000    0.00000000   -0.02045042
   53   -0.00007675    0.00662194    0.00000000    0.00000000   -0.02386821
   54    0.00000000    0.00000000    0.00952974    0.00000000    0.00000000
   55    0.00000000    0.00000000    0.00000000    0.00952974    0.00000000
   56   -0.00176606    0.01766963    0.00000000    0.00000000   -0.05029575
   57   -0.01121259    0.05516024    0.00000000    0.00000000   -0.15721009
   58    0.00000000    0.00000000    0.04652796    0.00000000    0.00000000
   59    0.00000000    0.00000000    0.00000000    0.04652796    0.00000000
   60   -0.03456695    0.08627009    0.00000000    0.00000000   -0.19934711
   61   -0.08627009    0.17925480    0.00000000    0.00000000   -0.33236634
   62    0.00000000    0.00000000    0.17925480    0.00000000    0.00000000
   63    0.00000000    0.00000000    0.00000000    0.17925480    0.00000000
   64   -0.19934711    0.33236634    0.00000000    0.00000000   -0.43700421
   65   -0.08917763    0.34967350    0.00000000    0.00000000   -0.29989380
   66    0.00000000    0.00000000    0.29487809    0.00000000    0.00000000
   67    0.00000000    0.00000000    0.00000000    0.29487809    0.00000000
   68   -0.07863457    0.54674995    0.00000000    0.00000000   -0.17403626
   69    0.00000000    0.00000000    0.00000000    0.00000000    0.00000000
   70    0.00000000    0.00000000    0.00000000    0.04830850    0.00000000
   71   -0.03286572    0.05171413    0.00000000    0.00000000   -0.09980611
   72    0.00000000    0.00000000    0.04830850    0.00000000    0.00000000
   73    0.00000000    0.00000000    0.00000000    0.00000000    0.00000000
   74    0.00000000    0.00014245    0.00000000    0.00000000   -0.00073182
   75    0.00000000    0.00014950    0.00000000    0.00000000   -0.00078732
   76    0.00000000    0.00000000    0.00027123    0.00000000    0.00000000
   77    0.00000000    0.00000000    0.00000000    0.00027123    0.00000000
   78   -0.00000023    0.00073471    0.00000000    0.00000000   -0.00335996
   79   -0.00002524    0.00275353    0.00000000    0.00000000   -0.01146521
   80    0.00000000    0.00000000    0.00232261    0.00000000    0.00000000
   81    0.00000000    0.00000000    0.00000000    0.00232261    0.00000000
   82   -0.00011948    0.00629161    0.00000000    0.00000000   -0.02387457
   83   -0.00629161    0.02550373    0.00000000    0.00000000   -0.06908575
   84    0.00000000    0.00000000    0.02550373    0.00000000    0.00000000
   85    0.00000000    0.00000000    0.00000000    0.02550373    0.00000000
   86   -0.02387457    0.06908575    0.00000000    0.00000000   -0.16163911
   87   -0.04442797    0.14188762    0.00000000    0.00000000   -0.17778200
   88    0.00000000    0.00000000    0.11965320    0.00000000    0.00000000
   89    0.00000000    0.00000000    0.00000000    0.11965320    0.00000000
   90   -0.09115423    0.32412240    0.00000000    0.00000000   -0.28646487
   91    0.00000000    0.00000000    0.00000000    0.00000000    0.00000000
   92    0.00000000    0.00000000    0.00000000    0.00298199    0.00000000
   93   -0.00007543    0.00466370    0.00000000    0.00000000   -0.01705586
   94    0.00000000    0.00000000    0.00298199    0.00000000    0.00000000
   95    0.00000000    0.00000000    0.00000000    0.00000000    0.00000000
   96    0.00000000    0.00000994    0.00000000    0.00000000   -0.00006148
   97   -0.00000050    0.00021599    0.00000000    0.00000000   -0.00103603
   98   -0.00133016    0.00671125    0.00000000    0.00000000   -0.01926930
   99   -0.01986365    0.06544076    0.00000000    0.00000000   -0.09003506
  100    0.00000000    0.00000000    0.00001955    0.00000000    0.00000000
  101    0.00000000    0.00000000    0.00000000    0.00001955    0.00000000
  102    0.00000000    0.00006784    0.00000000    0.00000000   -0.00037471
            21            22            23            24            25
    1    0.17826920    0.00000000    0.00000000    0.14370910    0.00000000
    2    0.44569056    0.00000000    0.00000000    0.32798456    0.00000000
    3    0.77529708    0.00000000    0.00000000    0.45378205    0.00000000
    4    0.91777682    0.00000000    0.00000000    0.34564575    0.00000000
    5    0.00000000    0.11952905    0.00000000    0.00000000    0.00000000
    6    0.00000000    0.00000000    0.11952905    0.00000000    0.00000000
    7   -0.04989281    0.00000000    0.00000000    0.08017561    0.00000000
    8    0.06556250    0.00000000    0.00000000    0.00000000    0.00000000
    9    0.07831571    0.00000000    0.00000000    0.00000000    0.00000000
   10    0.00000000    0.05734990    0.00000000    0.00000000    0.00000000
   11    0.00000000    0.00000000    0.05734990    0.00000000    0.00000000
   12    0.00000000    0.00000000    0.00000000    0.05734990    0.00000000
   13    0.41009644    0.00000000    0.00000000    0.00000000    0.00000000
   14    0.00000000    0.22636537    0.00000000    0.00000000    0.00000000
   15    0.00000000    0.00000000    0.22636537    0.00000000    0.00000000
   16    0.00000000    0.00000000    0.00000000    0.22636537    0.00000000
   17    0.77440773    0.00000000    0.00000000    0.00000000    0.00000000
   18    0.00000000    0.65305457    0.00000000    0.00000000    0.00000000
   19    0.00000000    0.00000000    0.65305457    0.00000000    0.00000000
   20    0.00000000    0.00000000    0.00000000    0.65305457    0.00000000
   21    1.00000000    0.00000000    0.00000000    0.00000000    0.00000000
   22    0.00000000    1.00000000    0.00000000    0.00000000    0.00000000
   23    0.00000000    0.00000000    1.00000000    0.00000000    0.00000000
   24    0.00000000    0.00000000    0.00000000    1.00000000    0.00000000
   25    0.00000000    0.00000000    0.00000000    0.00000000    1.00000000
   26    0.00000000    0.00000000    0.00000000    0.00000000    0.00000000
   27    0.00000000    0.00000000    0.00000000    0.00000000    0.00000000
   28    0.00000000    0.00000000    0.00000000    0.00000000    0.00000000
   29    0.00000000    0.00000000    0.00000000    0.00000000    0.00000000
   30    0.05279415    0.00000000    0.00000000   -0.04878513    0.00000000
   31    0.06298298    0.00000000    0.00000000   -0.05854492    0.00000000
   32    0.00000000    0.04631683    0.00000000    0.00000000    0.00000000
   33    0.00000000    0.00000000    0.04631683    0.00000000    0.00000000
   34    0.02171339    0.00000000    0.00000000    0.02652426    0.00000000
   35    0.33524941    0.00000000    0.00000000   -0.28821873    0.00000000
   36    0.00000000    0.18505125    0.00000000    0.00000000    0.00000000
   37    0.00000000    0.00000000    0.18505125    0.00000000    0.00000000
   38    0.08675226    0.00000000    0.00000000    0.11046909    0.00000000
   39    0.65402938    0.00000000    0.00000000   -0.47139727    0.00000000
   40    0.00000000    0.55154004    0.00000000    0.00000000    0.00000000
   41    0.00000000    0.00000000    0.55154004    0.00000000    0.00000000
   42    0.25856266    0.00000000    0.00000000    0.36517879    0.00000000
   43    0.89593510    0.00000000    0.00000000   -0.42001549    0.00000000
   44    0.00000000    0.89593510    0.00000000    0.00000000    0.00000000
   45    0.00000000    0.00000000    0.89593510    0.00000000    0.00000000
   46    0.42001549    0.00000000    0.00000000    0.69903132    0.00000000
   47    0.00000000    0.00000000    0.00000000    0.00000000    0.20793382
   48    0.00000000    0.00000000    0.03244630    0.00000000    0.00000000
   49    0.00878200    0.00000000    0.00000000    0.02977018    0.00000000
   50    0.00000000    0.03244630    0.00000000    0.00000000    0.00000000
   51    0.00000000    0.00000000    0.00000000    0.00000000    0.00000000
   52    0.02365710    0.00000000    0.00000000   -0.04742008    0.00000000
   53    0.02808789    0.00000000    0.00000000   -0.05663982    0.00000000
   54    0.00000000    0.02098114    0.00000000    0.00000000    0.00000000
   55    0.00000000    0.00000000    0.02098114    0.00000000    0.00000000
   56    0.02133801    0.00000000    0.00000000   -0.02121335    0.00000000
   57    0.15885722    0.00000000    0.00000000   -0.29627660    0.00000000
   58    0.00000000    0.08768614    0.00000000    0.00000000    0.00000000
   59    0.00000000    0.00000000    0.08768614    0.00000000    0.00000000
   60    0.08917763    0.00000000    0.00000000   -0.07863457    0.00000000
   61    0.34967350    0.00000000    0.00000000   -0.54674995    0.00000000
   62    0.00000000    0.29487809    0.00000000    0.00000000    0.00000000
   63    0.00000000    0.00000000    0.29487809    0.00000000    0.00000000
   64    0.29989380    0.00000000    0.00000000   -0.17403626    0.00000000
   65    0.59621490    0.00000000    0.00000000   -0.60635619    0.00000000
   66    0.00000000    0.59621490    0.00000000    0.00000000    0.00000000
   67    0.00000000    0.00000000    0.59621490    0.00000000    0.00000000
   68    0.60635619    0.00000000    0.00000000   -0.02045506    0.00000000
   69    0.00000000    0.00000000    0.00000000    0.00000000    0.00061660
   70    0.00000000    0.00000000    0.03287656    0.00000000    0.00000000
   71    0.01930415    0.00000000    0.00000000    0.00126522    0.00000000
   72    0.00000000    0.03287656    0.00000000    0.00000000    0.00000000
   73    0.00000000    0.00000000    0.00000000    0.00000000    0.00000000
   74    0.00744432    0.00000000    0.00000000   -0.02179771    0.00000000
   75    0.00877675    0.00000000    0.00000000   -0.02585685    0.00000000
   76    0.00000000    0.00670570    0.00000000    0.00000000    0.00000000
   77    0.00000000    0.00000000    0.00670570    0.00000000    0.00000000
   78    0.00996340    0.00000000    0.00000000   -0.02207721    0.00000000
   79    0.05417126    0.00000000    0.00000000   -0.14760391    0.00000000
   80    0.00000000    0.02990150    0.00000000    0.00000000    0.00000000
   81    0.00000000    0.00000000    0.02990150    0.00000000    0.00000000
   82    0.04442797    0.00000000    0.00000000   -0.09115423    0.00000000
   83    0.14188762    0.00000000    0.00000000   -0.32412240    0.00000000
   84    0.00000000    0.11965320    0.00000000    0.00000000    0.00000000
   85    0.00000000    0.00000000    0.11965320    0.00000000    0.00000000
   86    0.17778200    0.00000000    0.00000000   -0.28646487    0.00000000
   87    0.33160304    0.00000000    0.00000000   -0.49269934    0.00000000
   88    0.00000000    0.33160304    0.00000000    0.00000000    0.00000000
   89    0.00000000    0.00000000    0.33160304    0.00000000    0.00000000
   90    0.49269934    0.00000000    0.00000000   -0.40045490    0.00000000
   91    0.00000000    0.00000000    0.00000000    0.00000000    0.00000014
   92    0.00000000    0.00000000    0.01604273    0.00000000    0.00000000
   93    0.01376199    0.00000000    0.00000000   -0.01969661    0.00000000
   94    0.00000000    0.01604273    0.00000000    0.00000000    0.00000000
   95    0.00000000    0.00000000    0.00000000    0.00000000    0.00000000
   96    0.00638576    0.00000000    0.00000000   -0.02346744    0.00000000
   97    0.02133121    0.00000000    0.00000000   -0.07157484    0.00000000
   98    0.06911775    0.00000000    0.00000000   -0.18445641    0.00000000
   99    0.19372804    0.00000000    0.00000000   -0.33266844    0.00000000
  100    0.00000000    0.00459878    0.00000000    0.00000000    0.00000000
  101    0.00000000    0.00000000    0.00459878    0.00000000    0.00000000
  102    0.00875250    0.00000000    0.00000000   -0.02687882    0.00000000
            26            27            28            29            30
    1    0.00000000    0.43073562    0.00000000    0.00000000    0.00000055
    2    0.00000000    0.26563031    0.00000000    0.00000000    0.00135715
    3    0.00000000    0.04672224    0.00000000    0.00000000    0.02033424
    4    0.00000000    0.00453652    0.00000000    0.00000000    0.03002337
    5    0.00000000    0.00000000    0.43822589    0.00000000    0.00000000
    6    0.43822589    0.00000000    0.00000000    0.00000000    0.00000000
    7    0.00000000   -0.18079493    0.00000000    0.00000000   -0.00007630
    8    0.00000000    0.00000000    0.00000000    0.00000000    0.00054938
    9    0.00000000    0.00000000    0.00000000    0.00000000    0.00021335
   10    0.00000000    0.00000000    0.00000000    0.00000000    0.00000000
   11    0.00000000    0.00000000    0.00000000    0.00000000    0.00000000
   12    0.00000000    0.00000000    0.00000000    0.00000000   -0.01111511
   13    0.00000000    0.00000000    0.00000000    0.00000000    0.03975418
   14    0.00000000    0.00000000    0.00000000    0.00000000    0.00000000
   15    0.00000000    0.00000000    0.00000000    0.00000000    0.00000000
   16    0.00000000    0.00000000    0.00000000    0.00000000   -0.10674387
   17    0.00000000    0.00000000    0.00000000    0.00000000    0.07653222
   18    0.00000000    0.00000000    0.00000000    0.00000000    0.00000000
   19    0.00000000    0.00000000    0.00000000    0.00000000    0.00000000
   20    0.00000000    0.00000000    0.00000000    0.00000000   -0.12489853
   21    0.00000000    0.00000000    0.00000000    0.00000000    0.05279415
   22    0.00000000    0.00000000    0.00000000    0.00000000    0.00000000
   23    0.00000000    0.00000000    0.00000000    0.00000000    0.00000000
   24    0.00000000    0.00000000    0.00000000    0.00000000   -0.04878513
   25    0.00000000    0.00000000    0.00000000    0.00000000    0.00000000
   26    1.00000000    0.00000000    0.00000000    0.00000000    0.00000000
   27    0.00000000    1.00000000    0.00000000    0.00000000    0.13533153
   28    0.00000000    0.00000000    1.00000000    0.00000000    0.00000000
   29    0.00000000    0.00000000    0.00000000    1.00000000    0.00000000
   30    0.00000000    0.13533153    0.00000000    0.00000000    1.00000000
   31    0.00000000    0.17178911    0.00000000    0.00000000    0.87844383
   32    0.00000000    0.00000000   -0.19626275    0.00000000    0.00000000
   33   -0.19626275    0.00000000    0.00000000    0.00000000    0.00000000
   34    0.00000000    0.28206990    0.00000000    0.00000000    0.00000000
   35    0.00000000    0.34610507    0.00000000    0.00000000    0.32917950
   36    0.00000000    0.00000000   -0.38489158    0.00000000    0.00000000
   37   -0.38489158    0.00000000    0.00000000    0.00000000    0.00000000
   38    0.00000000    0.16388589    0.00000000    0.00000000    0.00000000
   39    0.00000000    0.09882992    0.00000000    0.00000000    0.15376127
   40    0.00000000    0.00000000   -0.20028068    0.00000000    0.00000000
   41   -0.20028068    0.00000000    0.00000000    0.00000000    0.00000000
   42    0.00000000   -0.09420159    0.00000000    0.00000000    0.00000000
   43    0.00000000    0.00878200    0.00000000    0.00000000    0.06556250
   44    0.00000000    0.00000000   -0.03244630    0.00000000    0.00000000
   45   -0.03244630    0.00000000    0.00000000    0.00000000    0.00000000
   46    0.00000000   -0.02977018    0.00000000    0.00000000    0.00000000
   47    0.00000000    0.00000000    0.00000000    0.00000000    0.00000000
   48   -0.44520104    0.00000000    0.00000000    0.00000000    0.00000000
   49    0.00000000    0.02093496    0.00000000    0.00000000    0.00000000
   50    0.00000000    0.00000000   -0.44520104    0.00000000    0.00000000
   51    0.00000000    0.00000000    0.00000000    0.20793382    0.00000000
   52    0.00000000    0.00006067    0.00000000    0.00000000    0.00009499
   53    0.00000000    0.00002522    0.00000000    0.00000000    0.00001693
   54    0.00000000    0.00000000   -0.00011469    0.00000000    0.00000000
   55   -0.00011469    0.00000000    0.00000000    0.00000000    0.00000000
   56    0.00000000    0.00124109    0.00000000    0.00000000    0.00259912
   57    0.00000000    0.01020350    0.00000000    0.00000000    0.01849195
   58    0.00000000    0.00000000   -0.00523050    0.00000000    0.00000000
   59   -0.00523050    0.00000000    0.00000000    0.00000000    0.00000000
   60    0.00000000    0.03286572    0.00000000    0.00000000    0.05761501
   61    0.00000000    0.05171413    0.00000000    0.00000000    0.05923293
   62    0.00000000    0.00000000   -0.04830850    0.00000000    0.00000000
   63   -0.04830850    0.00000000    0.00000000    0.00000000    0.00000000
   64    0.00000000    0.09980611    0.00000000    0.00000000    0.11300797
   65    0.00000000    0.01930415    0.00000000    0.00000000    0.04875507
   66    0.00000000    0.00000000   -0.03287656    0.00000000    0.00000000
   67   -0.03287656    0.00000000    0.00000000    0.00000000    0.00000000
   68    0.00000000   -0.00126522    0.00000000    0.00000000    0.05268349
   69    0.00000000    0.00000000    0.00000000    0.00000000    0.00000000
   70   -0.00849834    0.00000000    0.00000000    0.00000000    0.00000000
   71    0.00000000    0.03337747    0.00000000    0.00000000    0.07000816
   72    0.00000000    0.00000000   -0.00849834    0.00000000    0.00000000
   73    0.00000000    0.00000000    0.00000000    0.00061660    0.00000000
   74    0.00000000    0.00000000    0.00000000    0.00000000    0.00000000
   75    0.00000000    0.00000000    0.00000000    0.00000000    0.00000000
   76    0.00000000    0.00000000    0.00000000    0.00000000    0.00000000
   77    0.00000000    0.00000000    0.00000000    0.00000000    0.00000000
   78    0.00000000    0.00000000    0.00000000    0.00000000    0.00000000
   79    0.00000000    0.00001460    0.00000000    0.00000000    0.00002210
   80    0.00000000    0.00000000   -0.00000512    0.00000000    0.00000000
   81   -0.00000512    0.00000000    0.00000000    0.00000000    0.00000000
   82    0.00000000    0.00007543    0.00000000    0.00000000    0.00012128
   83    0.00000000    0.00466370    0.00000000    0.00000000    0.00579283
   84    0.00000000    0.00000000   -0.00298199    0.00000000    0.00000000
   85   -0.00298199    0.00000000    0.00000000    0.00000000    0.00000000
   86    0.00000000    0.01705586    0.00000000    0.00000000    0.02045042
   87    0.00000000    0.01376199    0.00000000    0.00000000    0.02365710
   88    0.00000000    0.00000000   -0.01604273    0.00000000    0.00000000
   89   -0.01604273    0.00000000    0.00000000    0.00000000    0.00000000
   90    0.00000000    0.01969661    0.00000000    0.00000000    0.04742008
   91    0.00000000    0.00000000    0.00000000    0.00000000    0.00000000
   92   -0.00000430    0.00000000    0.00000000    0.00000000    0.00000000
   93    0.00000000    0.00004094    0.00000000    0.00000000    0.00006067
   94    0.00000000    0.00000000   -0.00000430    0.00000000    0.00000000
   95    0.00000000    0.00000000    0.00000000    0.00000014    0.00000000
   96    0.00000000    0.00000000    0.00000000    0.00000000    0.00000000
   97    0.00000000    0.00000000    0.00000000    0.00000000    0.00000035
   98    0.00000000    0.00093331    0.00000000    0.00000000    0.00113892
   99    0.00000000    0.00646720    0.00000000    0.00000000    0.01068551
  100    0.00000000    0.00000000    0.00000000    0.00000000    0.00000000
  101    0.00000000    0.00000000    0.00000000    0.00000000    0.00000000
  102    0.00000000    0.00000000    0.00000000    0.00000000    0.00000000
            31            32            33            34            35
    1    0.00000001    0.00000000    0.00000000    0.00002913    0.00166546
    2    0.00134504    0.00000000    0.00000000    0.00912972    0.02962175
    3    0.02398511    0.00000000    0.00000000    0.03667333    0.14511351
    4    0.03569538    0.00000000    0.00000000    0.01943158    0.19851927
    5    0.00000000    0.00009962    0.00000000    0.00000000    0.00000000
    6    0.00000000    0.00000000    0.00009962    0.00000000    0.00000000
    7   -0.00002782    0.00000000    0.00000000   -0.00167476   -0.01425060
    8    0.00021335    0.00000000    0.00000000    0.01111511    0.03975418
    9   -0.00001085    0.00000000    0.00000000    0.00881760    0.04577913
   10    0.00000000    0.01804651    0.00000000    0.00000000    0.00000000
   11    0.00000000    0.00000000    0.01804651    0.00000000    0.00000000
   12   -0.00881760    0.00000000    0.00000000   -0.11780544   -0.15342127
   13    0.04577913    0.00000000    0.00000000    0.15342127    0.29732931
   14    0.00000000    0.09850435    0.00000000    0.00000000    0.00000000
   15    0.00000000    0.00000000    0.09850435    0.00000000    0.00000000
   16   -0.13012704    0.00000000    0.00000000   -0.26572979   -0.46309266
   17    0.09200837    0.00000000    0.00000000    0.09655985    0.44188010
   18    0.00000000    0.11297609    0.00000000    0.00000000    0.00000000
   19    0.00000000    0.00000000    0.11297609    0.00000000    0.00000000
   20   -0.15286606    0.00000000    0.00000000   -0.03783097   -0.58052705
   21    0.06298298    0.00000000    0.00000000    0.02171339    0.33524941
   22    0.00000000    0.04631683    0.00000000    0.00000000    0.00000000
   23    0.00000000    0.00000000    0.04631683    0.00000000    0.00000000
   24   -0.05854492    0.00000000    0.00000000    0.02652426   -0.28821873
   25    0.00000000    0.00000000    0.00000000    0.00000000    0.00000000
   26    0.00000000    0.00000000   -0.19626275    0.00000000    0.00000000
   27    0.17178911    0.00000000    0.00000000    0.28206990    0.34610507
   28    0.00000000   -0.19626275    0.00000000    0.00000000    0.00000000
   29    0.00000000    0.00000000    0.00000000    0.00000000    0.00000000
   30    0.87844383    0.00000000    0.00000000    0.00000000    0.32917950
   31    1.00000000    0.00000000    0.00000000    0.00000000    0.41879959
   32    0.00000000    1.00000000    0.00000000    0.00000000    0.00000000
   33    0.00000000    0.00000000    1.00000000    0.00000000    0.00000000
   34    0.00000000    0.00000000    0.00000000    1.00000000    0.00000000
   35    0.41879959    0.00000000    0.00000000    0.00000000    1.00000000
   36    0.00000000    0.62912021    0.00000000    0.00000000    0.00000000
   37    0.00000000    0.00000000    0.62912021    0.00000000    0.00000000
   38    0.00000000    0.00000000    0.00000000    0.62912021    0.00000000
   39    0.18714545    0.00000000    0.00000000    0.00000000    0.77469678
   40    0.00000000    0.22023025    0.00000000    0.00000000    0.00000000
   41    0.00000000    0.00000000    0.22023025    0.00000000    0.00000000
   42    0.00000000    0.00000000    0.00000000    0.22023025    0.00000000
   43    0.07831571    0.00000000    0.00000000    0.00000000    0.41009644
   44    0.00000000    0.05734990    0.00000000    0.00000000    0.00000000
   45    0.00000000    0.00000000    0.05734990    0.00000000    0.00000000
   46    0.00000000    0.00000000    0.00000000    0.05734990    0.00000000
   47    0.00000000    0.00000000    0.00000000    0.00000000    0.00000000
   48    0.00000000    0.00000000    0.00000000    0.00000000    0.00000000
   49    0.00000000    0.00000000    0.00000000    0.00000000    0.00000000
   50    0.00000000    0.00000000    0.00000000    0.00000000    0.00000000
   51    0.00000000    0.00000000    0.00000000    0.00000000    0.00000000
   52    0.00001693    0.00000000    0.00000000   -0.00259912    0.01849195
   53   -0.00000190    0.00000000    0.00000000   -0.00127225    0.02029550
   54    0.00000000    0.00457424    0.00000000    0.00000000    0.00000000
   55    0.00000000    0.00000000    0.00457424    0.00000000    0.00000000
   56    0.00127225    0.00000000    0.00000000   -0.04186629    0.09100605
   57    0.02029550    0.00000000    0.00000000   -0.09100605    0.19040373
   58    0.00000000    0.04996701    0.00000000    0.00000000    0.00000000
   59    0.00000000    0.00000000    0.04996701    0.00000000    0.00000000
   60    0.06746625    0.00000000    0.00000000   -0.20222982    0.34678668
   61    0.07087954    0.00000000    0.00000000   -0.08835803    0.35950795
   62    0.00000000    0.08840549    0.00000000    0.00000000    0.00000000
   63    0.00000000    0.00000000    0.08840549    0.00000000    0.00000000
   64    0.13770906    0.00000000    0.00000000   -0.07295452    0.55231048
   65    0.05813697    0.00000000    0.00000000   -0.02347399    0.31132140
   66    0.00000000    0.04281947    0.00000000    0.00000000    0.00000000
   67    0.00000000    0.00000000    0.04281947    0.00000000    0.00000000
   68    0.06319390    0.00000000    0.00000000    0.01779774    0.31298240
   69    0.00000000    0.00000000    0.00000000    0.00000000    0.00000000
   70    0.00000000    0.00000000    0.10075851    0.00000000    0.00000000
   71    0.08415337    0.00000000    0.00000000   -0.23942265    0.28621354
   72    0.00000000    0.10075851    0.00000000    0.00000000    0.00000000
   73    0.00000000    0.00000000    0.00000000    0.00000000    0.00000000
   74    0.00000000    0.00000000    0.00000000    0.00000000    0.00002210
   75    0.00000000    0.00000000    0.00000000    0.00000000    0.00001240
   76    0.00000000    0.00000002    0.00000000    0.00000000    0.00000000
   77    0.00000000    0.00000000    0.00000002    0.00000000    0.00000000
   78   -0.00000000    0.00000000    0.00000000   -0.00000073    0.00036802
   79    0.00001240    0.00000000    0.00000000   -0.00036802    0.00331848
   80    0.00000000    0.00010892    0.00000000    0.00000000    0.00000000
   81    0.00000000    0.00000000    0.00010892    0.00000000    0.00000000
   82    0.00007675    0.00000000    0.00000000   -0.00176606    0.01121259
   83    0.00662194    0.00000000    0.00000000   -0.01766963    0.05516024
   84    0.00000000    0.00952974    0.00000000    0.00000000    0.00000000
   85    0.00000000    0.00000000    0.00952974    0.00000000    0.00000000
   86    0.02386821    0.00000000    0.00000000   -0.05029575    0.15721009
   87    0.02808789    0.00000000    0.00000000   -0.02133801    0.15885722
   88    0.00000000    0.02098114    0.00000000    0.00000000    0.00000000
   89    0.00000000    0.00000000    0.02098114    0.00000000    0.00000000
   90    0.05663982    0.00000000    0.00000000   -0.02121335    0.29627660
   91    0.00000000    0.00000000    0.00000000    0.00000000    0.00000000
   92    0.00000000    0.00000000    0.00011469    0.00000000    0.00000000
   93    0.00002522    0.00000000    0.00000000   -0.00124109    0.01020350
   94    0.00000000    0.00011469    0.00000000    0.00000000    0.00000000
   95    0.00000000    0.00000000    0.00000000    0.00000000    0.00000000
   96    0.00000000    0.00000000    0.00000000    0.00000000    0.00000008
   97    0.00000018    0.00000000    0.00000000   -0.00000625    0.00010381
   98    0.00128759    0.00000000    0.00000000   -0.00362352    0.01238372
   99    0.01263903    0.00000000    0.00000000   -0.01132331    0.07501710
  100    0.00000000    0.00000000    0.00000000    0.00000000    0.00000000
  101    0.00000000    0.00000000    0.00000000    0.00000000    0.00000000
  102    0.00000000    0.00000000    0.00000000    0.00000000    0.00000452
            36            37            38            39            40
    1    0.00000000    0.00000000    0.00695679    0.04481629    0.00000000
    2    0.00000000    0.00000000    0.07022910    0.14618955    0.00000000
    3    0.00000000    0.00000000    0.14976748    0.33197181    0.00000000
    4    0.00000000    0.00000000    0.08101508    0.42435181    0.00000000
    5    0.00484009    0.00000000    0.00000000    0.00000000    0.05255481
    6    0.00000000    0.00484009    0.00000000    0.00000000    0.00000000
    7    0.00000000    0.00000000   -0.04618459   -0.08491254    0.00000000
    8    0.00000000    0.00000000    0.10674387    0.07653222    0.00000000
    9    0.00000000    0.00000000    0.13012704    0.09200837    0.00000000
   10    0.09850435    0.00000000    0.00000000    0.00000000    0.11297609
   11    0.00000000    0.09850435    0.00000000    0.00000000    0.00000000
   12    0.00000000    0.00000000   -0.26572979   -0.09655985    0.00000000
   13    0.00000000    0.00000000    0.46309266    0.44188010    0.00000000
   14    0.29732931    0.00000000    0.00000000    0.00000000    0.37272822
   15    0.00000000    0.29732931    0.00000000    0.00000000    0.00000000
   16    0.00000000    0.00000000   -0.42394103   -0.31856811    0.00000000
   17    0.00000000    0.00000000    0.31856811    0.69402323    0.00000000
   18    0.37272822    0.00000000    0.00000000    0.00000000    0.69402323
   19    0.00000000    0.37272822    0.00000000    0.00000000    0.00000000
   20    0.00000000    0.00000000   -0.04579572   -0.59317662    0.00000000
   21    0.00000000    0.00000000    0.08675226    0.65402938    0.00000000
   22    0.18505125    0.00000000    0.00000000    0.00000000    0.55154004
   23    0.00000000    0.18505125    0.00000000    0.00000000    0.00000000
   24    0.00000000    0.00000000    0.11046909   -0.47139727    0.00000000
   25    0.00000000    0.00000000    0.00000000    0.00000000    0.00000000
   26    0.00000000   -0.38489158    0.00000000    0.00000000    0.00000000
   27    0.00000000    0.00000000    0.16388589    0.09882992    0.00000000
   28   -0.38489158    0.00000000    0.00000000    0.00000000   -0.20028068
   29    0.00000000    0.00000000    0.00000000    0.00000000    0.00000000
   30    0.00000000    0.00000000    0.00000000    0.15376127    0.00000000
   31    0.00000000    0.00000000    0.00000000    0.18714545    0.00000000
   32    0.62912021    0.00000000    0.00000000    0.00000000    0.22023025
   33    0.00000000    0.62912021    0.00000000    0.00000000    0.00000000
   34    0.00000000    0.00000000    0.62912021    0.00000000    0.00000000
   35    0.00000000    0.00000000    0.00000000    0.77469678    0.00000000
   36    1.00000000    0.00000000    0.00000000    0.00000000    0.65346087
   37    0.00000000    1.00000000    0.00000000    0.00000000    0.00000000
   38    0.00000000    0.00000000    1.00000000    0.00000000    0.00000000
   39    0.00000000    0.00000000    0.00000000    1.00000000    0.00000000
   40    0.65346087    0.00000000    0.00000000    0.00000000    1.00000000
   41    0.00000000    0.65346087    0.00000000    0.00000000    0.00000000
   42    0.00000000    0.00000000    0.65346087    0.00000000    0.00000000
   43    0.00000000    0.00000000    0.00000000    0.77440773    0.00000000
   44    0.22636537    0.00000000    0.00000000    0.00000000    0.65305457
   45    0.00000000    0.22636537    0.00000000    0.00000000    0.00000000
   46    0.00000000    0.00000000    0.22636537    0.00000000    0.00000000
   47    0.00000000    0.00000000    0.00000000    0.00000000    0.00000000
   48    0.00000000    0.00000000    0.00000000    0.00000000    0.00000000
   49    0.00000000    0.00000000    0.00000000    0.00000000    0.00000000
   50    0.00000000    0.00000000    0.00000000    0.00000000    0.00000000
   51    0.00000000    0.00000000    0.00000000    0.00000000    0.00000000
   52    0.00000000    0.00000000   -0.05761501    0.05923293    0.00000000
   53    0.00000000    0.00000000   -0.06746625    0.07087954    0.00000000
   54    0.04996701    0.00000000    0.00000000    0.00000000    0.08840549
   55    0.00000000    0.04996701    0.00000000    0.00000000    0.00000000
   56    0.00000000    0.00000000   -0.20222982    0.08835803    0.00000000
   57    0.00000000    0.00000000   -0.34678668    0.35950795    0.00000000
   58    0.19040373    0.00000000    0.00000000    0.00000000    0.30324688
   59    0.00000000    0.19040373    0.00000000    0.00000000    0.00000000
   60    0.00000000    0.00000000   -0.44120679    0.30308408    0.00000000
   61    0.00000000    0.00000000   -0.30308408    0.60685628    0.00000000
   62    0.30324688    0.00000000    0.00000000    0.00000000    0.60685628
   63    0.00000000    0.30324688    0.00000000    0.00000000    0.00000000
   64    0.00000000    0.00000000   -0.16237985    0.60653048    0.00000000
   65    0.00000000    0.00000000   -0.09420598    0.61466159    0.00000000
   66    0.17184344    0.00000000    0.00000000    0.00000000    0.51834136
   67    0.00000000    0.17184344    0.00000000    0.00000000    0.00000000
   68    0.00000000    0.00000000    0.07713484    0.51806309    0.00000000
   69    0.00000000    0.00000000    0.00000000    0.00000000    0.00000000
   70    0.00000000    0.27218479    0.00000000    0.00000000    0.00000000
   71    0.00000000    0.00000000   -0.27397085    0.10869802    0.00000000
   72    0.27218479    0.00000000    0.00000000    0.00000000    0.18837162
   73    0.00000000    0.00000000    0.00000000    0.00000000    0.00000000
   74    0.00000000    0.00000000   -0.00012128    0.00579283    0.00000000
   75    0.00000000    0.00000000   -0.00007675    0.00662194    0.00000000
   76    0.00010892    0.00000000    0.00000000    0.00000000    0.00952974
   77    0.00000000    0.00010892    0.00000000    0.00000000    0.00000000
   78    0.00000000    0.00000000   -0.00176606    0.01766963    0.00000000
   79    0.00000000    0.00000000   -0.01121259    0.05516024    0.00000000
   80    0.00331848    0.00000000    0.00000000    0.00000000    0.04652796
   81    0.00000000    0.00331848    0.00000000    0.00000000    0.00000000
   82    0.00000000    0.00000000   -0.03456695    0.08627009    0.00000000
   83    0.00000000    0.00000000   -0.08627009    0.17925480    0.00000000
   84    0.04652796    0.00000000    0.00000000    0.00000000    0.17925480
   85    0.00000000    0.04652796    0.00000000    0.00000000    0.00000000
   86    0.00000000    0.00000000   -0.19934711    0.33236634    0.00000000
   87    0.00000000    0.00000000   -0.08917763    0.34967350    0.00000000
   88    0.08768614    0.00000000    0.00000000    0.00000000    0.29487809
   89    0.00000000    0.08768614    0.00000000    0.00000000    0.00000000
   90    0.00000000    0.00000000   -0.07863457    0.54674995    0.00000000
   91    0.00000000    0.00000000    0.00000000    0.00000000    0.00000000
   92    0.00000000    0.00523050    0.00000000    0.00000000    0.00000000
   93    0.00000000    0.00000000   -0.03286572    0.05171413    0.00000000
   94    0.00523050    0.00000000    0.00000000    0.00000000    0.04830850
   95    0.00000000    0.00000000    0.00000000    0.00000000    0.00000000
   96    0.00000000    0.00000000   -0.00000055    0.00102650    0.00000000
   97    0.00000000    0.00000000   -0.00039837    0.00786316    0.00000000
   98    0.00000000    0.00000000   -0.02068709    0.05771636    0.00000000
   99    0.00000000    0.00000000   -0.04955210    0.18350255    0.00000000
  100    0.00000095    0.00000000    0.00000000    0.00000000    0.00152298
  101    0.00000000    0.00000095    0.00000000    0.00000000    0.00000000
  102    0.00000000    0.00000000   -0.00002523    0.00398283    0.00000000
            41            42            43            44            45
    1    0.00000000    0.12945427    0.09880668    0.00000000    0.00000000
    2    0.00000000    0.32651070    0.26005690    0.00000000    0.00000000
    3    0.00000000    0.44382535    0.50510730    0.00000000    0.00000000
    4    0.00000000    0.27185535    0.69662806    0.00000000    0.00000000
    5    0.00000000    0.00000000    0.00000000    0.06709704    0.00000000
    6    0.05255481    0.00000000    0.00000000    0.00000000    0.06709704
    7    0.00000000   -0.17722696   -0.05946226    0.00000000    0.00000000
    8    0.00000000    0.12489853    0.05279415    0.00000000    0.00000000
    9    0.00000000    0.15286606    0.06298298    0.00000000    0.00000000
   10    0.00000000    0.00000000    0.00000000    0.04631683    0.00000000
   11    0.11297609    0.00000000    0.00000000    0.00000000    0.04631683
   12    0.00000000   -0.03783097   -0.02171339    0.00000000    0.00000000
   13    0.00000000    0.58052705    0.33524941    0.00000000    0.00000000
   14    0.00000000    0.00000000    0.00000000    0.18505125    0.00000000
   15    0.37272822    0.00000000    0.00000000    0.00000000    0.18505125
   16    0.00000000   -0.04579572   -0.08675226    0.00000000    0.00000000
   17    0.00000000    0.59317662    0.65402938    0.00000000    0.00000000
   18    0.00000000    0.00000000    0.00000000    0.55154004    0.00000000
   19    0.69402323    0.00000000    0.00000000    0.00000000    0.55154004
   20    0.00000000    0.18703948   -0.25856266    0.00000000    0.00000000
   21    0.00000000    0.25856266    0.89593510    0.00000000    0.00000000
   22    0.00000000    0.00000000    0.00000000    0.89593510    0.00000000
   23    0.55154004    0.00000000    0.00000000    0.00000000    0.89593510
   24    0.00000000    0.36517879   -0.42001549    0.00000000    0.00000000
   25    0.00000000    0.00000000    0.00000000    0.00000000    0.00000000
   26   -0.20028068    0.00000000    0.00000000    0.00000000   -0.03244630
   27    0.00000000   -0.09420159    0.00878200    0.00000000    0.00000000
   28    0.00000000    0.00000000    0.00000000   -0.03244630    0.00000000
   29    0.00000000    0.00000000    0.00000000    0.00000000    0.00000000
   30    0.00000000    0.00000000    0.06556250    0.00000000    0.00000000
   31    0.00000000    0.00000000    0.07831571    0.00000000    0.00000000
   32    0.00000000    0.00000000    0.00000000    0.05734990    0.00000000
   33    0.22023025    0.00000000    0.00000000    0.00000000    0.05734990
   34    0.00000000    0.22023025    0.00000000    0.00000000    0.00000000
   35    0.00000000    0.00000000    0.41009644    0.00000000    0.00000000
   36    0.00000000    0.00000000    0.00000000    0.22636537    0.00000000
   37    0.65346087    0.00000000    0.00000000    0.00000000    0.22636537
   38    0.00000000    0.65346087    0.00000000    0.00000000    0.00000000
   39    0.00000000    0.00000000    0.77440773    0.00000000    0.00000000
   40    0.00000000    0.00000000    0.00000000    0.65305457    0.00000000
   41    1.00000000    0.00000000    0.00000000    0.00000000    0.65305457
   42    0.00000000    1.00000000    0.00000000    0.00000000    0.00000000
   43    0.00000000    0.00000000    1.00000000    0.00000000    0.00000000
   44    0.00000000    0.00000000    0.00000000    1.00000000    0.00000000
   45    0.65305457    0.00000000    0.00000000    0.00000000    1.00000000
   46    0.00000000    0.65305457    0.00000000    0.00000000    0.00000000
   47    0.00000000    0.00000000    0.00000000    0.00000000    0.00000000
   48    0.00000000    0.00000000    0.00000000    0.00000000    0.00000000
   49    0.00000000    0.00000000    0.00000000    0.00000000    0.00000000
   50    0.00000000    0.00000000    0.00000000    0.00000000    0.00000000
   51    0.00000000    0.00000000    0.00000000    0.00000000    0.00000000
   52    0.00000000   -0.11300797    0.04875507    0.00000000    0.00000000
   53    0.00000000   -0.13770906    0.05813697    0.00000000    0.00000000
   54    0.00000000    0.00000000    0.00000000    0.04281947    0.00000000
   55    0.08840549    0.00000000    0.00000000    0.00000000    0.04281947
   56    0.00000000   -0.07295452    0.02347399    0.00000000    0.00000000
   57    0.00000000   -0.55231048    0.31132140    0.00000000    0.00000000
   58    0.00000000    0.00000000    0.00000000    0.17184344    0.00000000
   59    0.30324688    0.00000000    0.00000000    0.00000000    0.17184344
   60    0.00000000   -0.16237985    0.09420598    0.00000000    0.00000000
   61    0.00000000   -0.60653048    0.61466159    0.00000000    0.00000000
   62    0.00000000    0.00000000    0.00000000    0.51834136    0.00000000
   63    0.60685628    0.00000000    0.00000000    0.00000000    0.51834136
   64    0.00000000    0.00065141    0.28415898    0.00000000    0.00000000
   65    0.00000000   -0.28415898    0.86047896    0.00000000    0.00000000
   66    0.00000000    0.00000000    0.00000000    0.86047896    0.00000000
   67    0.51834136    0.00000000    0.00000000    0.00000000    0.86047896
   68    0.00000000    0.27884001    0.47172162    0.00000000    0.00000000
   69    0.00000000    0.00000000    0.00000000    0.00000000    0.00000000
   70    0.18837162    0.00000000    0.00000000    0.00000000    0.03518381
   71    0.00000000    0.04123041    0.01113596    0.00000000    0.00000000
   72    0.00000000    0.00000000    0.00000000    0.03518381    0.00000000
   73    0.00000000    0.00000000    0.00000000    0.00000000    0.00000000
   74    0.00000000   -0.02045042    0.02365710    0.00000000    0.00000000
   75    0.00000000   -0.02386821    0.02808789    0.00000000    0.00000000
[...]
                                         0.9826  0.0560  0.1192  0.0000  0.0000
                                         0.0000  0.0000  0.0000  0.0000  0.0000
                                         0.0000  0.0000  0.1309  0.0000  0.0000
                                         0.0000
  80. (0.00066) RY ( 2) C  5            s(  0.00%)p 1.00( 98.29%)d 0.02(  1.71%)
                                         0.0000  0.0000  0.0000  0.0000  0.0000
                                         0.0000  0.0000  0.0000 -0.0040  0.9826
                                         0.0560  0.1192  0.0000  0.0000  0.0000
                                         0.0000  0.0000  0.0000  0.1309  0.0000
                                         0.0000
  81. (0.00043) RY ( 3) C  5            s( 36.83%)p 1.70( 62.65%)d 0.01(  0.52%)
                                         0.0000  0.0086  0.6060 -0.0303  0.0000
                                         0.0000  0.0000  0.0000  0.0000  0.0000
                                         0.0000  0.0000  0.0005  0.3252  0.5720
                                        -0.4400  0.0000  0.0000  0.0000  0.0000
                                        -0.0723
  82. (0.00030) RY ( 4) C  5            s(  6.53%)p14.09( 92.01%)d 0.22(  1.46%)
                                         0.0000 -0.0103  0.2542  0.0240  0.0000
                                         0.0000  0.0000  0.0000  0.0000  0.0000
                                         0.0000  0.0000  0.0059 -0.9060  0.3018
                                         0.0909  0.0000  0.0000  0.0000  0.0000
                                        -0.1208
  83. (0.00008) RY ( 5) C  5            s( 41.11%)p 1.22( 50.04%)d 0.22(  8.85%)
  84. (0.00004) RY ( 6) C  5            s( 11.78%)p 2.43( 28.61%)d 5.06( 59.61%)
  85. (0.00002) RY ( 7) C  5            s( 19.04%)p 2.76( 52.46%)d 1.50( 28.50%)
  86. (0.00000) RY ( 8) C  5            s(  0.00%)p 1.00(100.00%)d 0.00(  0.00%)
  87. (0.00000) RY ( 9) C  5            s(  0.00%)p 1.00(100.00%)d 0.00(  0.00%)
  88. (0.00000) RY (10) C  5            s(  0.00%)p 1.00(100.00%)d 0.00(  0.00%)
  89. (0.00000) RY (11) C  5            s( 85.07%)p 0.17( 14.19%)d 0.01(  0.74%)
  90. (0.00000) RY (12) C  5            s(  0.00%)p 0.00(  0.00%)d 1.00(100.00%)
  91. (0.00000) RY (13) C  5            s(  0.00%)p 1.00(  1.91%)d51.40( 98.09%)
  92. (0.00000) RY (14) C  5            s(  0.00%)p 1.00(  1.91%)d51.40( 98.09%)
  93. (0.00000) RY (15) C  5            s(  0.00%)p 0.00(  0.00%)d 1.00(100.00%)
  94. (0.00000) RY (16) C  5            s(  0.00%)p 1.00(100.00%)d 0.00(  0.00%)
  95. (0.00088) RY ( 1) H  6            s( 80.83%)p 0.24( 19.17%)
                                        -0.0115  0.8973 -0.0553 -0.0033  0.0000
                                         0.0000  0.4379
  96. (0.00018) RY ( 2) H  6            s( 54.72%)p 0.83( 45.28%)
                                         0.0238  0.3682  0.6407  0.0233  0.0000
                                         0.0000 -0.6729
  97. (0.00008) RY ( 3) H  6            s(  0.00%)p 1.00(100.00%)
  98. (0.00008) RY ( 4) H  6            s(  0.00%)p 1.00(100.00%)
  99. (0.00001) RY ( 5) H  6            s( 88.74%)p 0.13( 11.26%)
 100. (0.00000) RY ( 6) H  6            s( 75.83%)p 0.32( 24.17%)


 NHO DIRECTIONALITY AND BOND BENDING (deviations from line of nuclear centers at
                                      the radius of maximum hybrid amplitude)

         [Thresholds for printing:  angular deviation  >  1.0 degree]
                                    p- or d-character  > 25.0%
                                    orbital occupancy  >  0.10e

                        Line of Centers        Hybrid 1             Hybrid 2
                        ---------------  -------------------  ------------------
           NBO            Theta   Phi    Theta   Phi    Dev   Theta   Phi    Dev
 ===============================================================================
   7. BD ( 2) C  2- C  3  180.0    0.0    91.1  180.0  88.9    89.0  180.0  89.0
   8. BD ( 3) C  2- C  3  180.0    0.0    91.1   90.0  88.9    89.0   90.0  89.0
  11. BD ( 2) C  4- C  5  180.0    0.0    91.0  180.0  89.0    88.9  180.0  88.9
  12. BD ( 3) C  4- C  5  180.0    0.0    91.0  270.0  89.0    88.9   90.0  88.9


 SECOND ORDER PERTURBATION THEORY ANALYSIS OF FOCK MATRIX IN NBO BASIS

     Threshold for printing:   0.50 kcal/mol
                                                          E(2) E(NL)-E(L) F(L,NL)
      Donor (L) NBO              Acceptor (NL) NBO      kcal/mol   a.u.    a.u.
 ===============================================================================

 within unit  1
    1. CR ( 1) C  2            14. BD*( 1) H  1- C  2      0.75   11.80   0.084
    1. CR ( 1) C  2            15. BD*( 1) C  2- C  3      2.65   12.44   0.162
    1. CR ( 1) C  2            18. BD*( 1) C  3- C  4      8.74   11.94   0.288
    1. CR ( 1) C  2            23. RY ( 1) H  1            0.58   13.59   0.080
    1. CR ( 1) C  2            45. RY ( 1) C  3            2.73   13.84   0.174
    1. CR ( 1) C  2            48. RY ( 4) C  3            2.99   11.84   0.168
    2. CR ( 1) C  3            14. BD*( 1) H  1- C  2      5.23   11.80   0.222
    2. CR ( 1) C  3            15. BD*( 1) C  2- C  3      3.61   12.44   0.189
    2. CR ( 1) C  3            19. BD*( 1) C  4- C  5      3.84   12.44   0.195
    2. CR ( 1) C  3            32. RY ( 4) C  2            1.71   12.41   0.130
    2. CR ( 1) C  3            65. RY ( 4) C  4            1.21   11.84   0.107
    3. CR ( 1) C  4            15. BD*( 1) C  2- C  3      3.84   12.44   0.195
    3. CR ( 1) C  4            19. BD*( 1) C  4- C  5      3.61   12.44   0.189
    3. CR ( 1) C  4            22. BD*( 1) C  5- H  6      5.23   11.80   0.222
    3. CR ( 1) C  4            48. RY ( 4) C  3            1.21   11.84   0.107
    3. CR ( 1) C  4            82. RY ( 4) C  5            1.71   12.41   0.130
    4. CR ( 1) C  5            18. BD*( 1) C  3- C  4      8.74   11.94   0.288
    4. CR ( 1) C  5            19. BD*( 1) C  4- C  5      2.65   12.44   0.162
    4. CR ( 1) C  5            22. BD*( 1) C  5- H  6      0.75   11.80   0.084
    4. CR ( 1) C  5            62. RY ( 1) C  4            2.73   13.84   0.174
    4. CR ( 1) C  5            65. RY ( 4) C  4            2.99   11.84   0.168
    4. CR ( 1) C  5            95. RY ( 1) H  6            0.58   13.59   0.080
    5. BD ( 1) H  1- C  2      15. BD*( 1) C  2- C  3     12.93    2.15   0.149
    5. BD ( 1) H  1- C  2      18. BD*( 1) C  3- C  4      8.38    1.65   0.105
    5. BD ( 1) H  1- C  2      27. RY ( 5) H  1            1.83    3.05   0.067
    5. BD ( 1) H  1- C  2      31. RY ( 3) C  2            1.09    3.93   0.058
    5. BD ( 1) H  1- C  2      32. RY ( 4) C  2            0.84    2.12   0.038
    5. BD ( 1) H  1- C  2      33. RY ( 5) C  2            0.51    2.91   0.034
    5. BD ( 1) H  1- C  2      34. RY ( 6) C  2            0.72    3.60   0.045
    5. BD ( 1) H  1- C  2      35. RY ( 7) C  2            1.60    3.17   0.064
    5. BD ( 1) H  1- C  2      39. RY (11) C  2            1.51   13.87   0.129
    5. BD ( 1) H  1- C  2      45. RY ( 1) C  3            7.65    3.56   0.147
    5. BD ( 1) H  1- C  2      51. RY ( 7) C  3            1.66    5.41   0.085
    5. BD ( 1) H  1- C  2      52. RY ( 8) C  3            0.97    9.07   0.084
    5. BD ( 1) H  1- C  2      61. RY (17) C  3            1.98   17.18   0.165
    5. BD ( 1) H  1- C  2      66. RY ( 5) C  4            0.89    4.69   0.058
    5. BD ( 1) H  1- C  2      67. RY ( 6) C  4            1.28    7.93   0.090
    5. BD ( 1) H  1- C  2      69. RY ( 8) C  4            0.61    9.07   0.066
    6. BD ( 1) C  2- C  3      14. BD*( 1) H  1- C  2      8.16    1.87   0.110
    6. BD ( 1) C  2- C  3      18. BD*( 1) C  3- C  4     19.57    2.01   0.177
    6. BD ( 1) C  2- C  3      19. BD*( 1) C  4- C  5      4.63    2.51   0.096
    6. BD ( 1) C  2- C  3      23. RY ( 1) H  1            1.07    3.66   0.056
    6. BD ( 1) C  2- C  3      24. RY ( 2) H  1            0.52    2.98   0.035
    6. BD ( 1) C  2- C  3      45. RY ( 1) C  3            0.83    3.92   0.051
    6. BD ( 1) C  2- C  3      66. RY ( 5) C  4            0.88    5.05   0.060
    7. BD ( 2) C  2- C  3      20. BD*( 2) C  4- C  5     18.47    0.73   0.104
    7. BD ( 2) C  2- C  3      63. RY ( 2) C  4            2.39    1.34   0.050
    8. BD ( 3) C  2- C  3      21. BD*( 3) C  4- C  5     18.47    0.73   0.104
    8. BD ( 3) C  2- C  3      64. RY ( 3) C  4            2.39    1.34   0.050
    9. BD ( 1) C  3- C  4      14. BD*( 1) H  1- C  2      3.36    1.70   0.067
    9. BD ( 1) C  3- C  4      15. BD*( 1) C  2- C  3     23.98    2.34   0.211
    9. BD ( 1) C  3- C  4      19. BD*( 1) C  4- C  5     23.98    2.34   0.211
    9. BD ( 1) C  3- C  4      22. BD*( 1) C  5- H  6      3.36    1.70   0.067
    9. BD ( 1) C  3- C  4      27. RY ( 5) H  1            0.59    3.24   0.039
    9. BD ( 1) C  3- C  4      31. RY ( 3) C  2            1.70    4.11   0.075
    9. BD ( 1) C  3- C  4      34. RY ( 6) C  2            0.60    3.79   0.043
    9. BD ( 1) C  3- C  4      51. RY ( 7) C  3            0.51    5.60   0.048
    9. BD ( 1) C  3- C  4      61. RY (17) C  3            0.92   17.37   0.113
    9. BD ( 1) C  3- C  4      68. RY ( 7) C  4            0.51    5.60   0.048
    9. BD ( 1) C  3- C  4      78. RY (17) C  4            0.92   17.37   0.113
    9. BD ( 1) C  3- C  4      81. RY ( 3) C  5            1.70    4.11   0.075
    9. BD ( 1) C  3- C  4      84. RY ( 6) C  5            0.60    3.79   0.043
    9. BD ( 1) C  3- C  4      99. RY ( 5) H  6            0.59    3.24   0.039
   10. BD ( 1) C  4- C  5      15. BD*( 1) C  2- C  3      4.63    2.51   0.096
   10. BD ( 1) C  4- C  5      18. BD*( 1) C  3- C  4     19.57    2.01   0.177
   10. BD ( 1) C  4- C  5      22. BD*( 1) C  5- H  6      8.16    1.87   0.110
   10. BD ( 1) C  4- C  5      49. RY ( 5) C  3            0.88    5.05   0.060
   10. BD ( 1) C  4- C  5      62. RY ( 1) C  4            0.83    3.92   0.051
   10. BD ( 1) C  4- C  5      95. RY ( 1) H  6            1.07    3.66   0.056
   10. BD ( 1) C  4- C  5      96. RY ( 2) H  6            0.52    2.98   0.035
   11. BD ( 2) C  4- C  5      16. BD*( 2) C  2- C  3     18.47    0.73   0.104
   11. BD ( 2) C  4- C  5      46. RY ( 2) C  3            2.39    1.34   0.050
   12. BD ( 3) C  4- C  5      17. BD*( 3) C  2- C  3     18.47    0.73   0.104
   12. BD ( 3) C  4- C  5      47. RY ( 3) C  3            2.39    1.34   0.050
   13. BD ( 1) C  5- H  6      18. BD*( 1) C  3- C  4      8.38    1.65   0.105
   13. BD ( 1) C  5- H  6      19. BD*( 1) C  4- C  5     12.93    2.15   0.149
   13. BD ( 1) C  5- H  6      49. RY ( 5) C  3            0.89    4.69   0.058
   13. BD ( 1) C  5- H  6      50. RY ( 6) C  3            1.28    7.93   0.090
   13. BD ( 1) C  5- H  6      52. RY ( 8) C  3            0.61    9.07   0.066
   13. BD ( 1) C  5- H  6      62. RY ( 1) C  4            7.65    3.56   0.147
   13. BD ( 1) C  5- H  6      68. RY ( 7) C  4            1.66    5.41   0.085
   13. BD ( 1) C  5- H  6      69. RY ( 8) C  4            0.97    9.07   0.084
   13. BD ( 1) C  5- H  6      78. RY (17) C  4            1.98   17.18   0.165
   13. BD ( 1) C  5- H  6      81. RY ( 3) C  5            1.09    3.93   0.058
   13. BD ( 1) C  5- H  6      82. RY ( 4) C  5            0.84    2.12   0.038
   13. BD ( 1) C  5- H  6      83. RY ( 5) C  5            0.51    2.91   0.034
   13. BD ( 1) C  5- H  6      84. RY ( 6) C  5            0.72    3.60   0.045
   13. BD ( 1) C  5- H  6      85. RY ( 7) C  5            1.60    3.17   0.064
   13. BD ( 1) C  5- H  6      89. RY (11) C  5            1.51   13.87   0.129
   13. BD ( 1) C  5- H  6      99. RY ( 5) H  6            1.83    3.05   0.067


 NATURAL BOND ORBITALS (Summary):

                                                     Principal Delocalizations
           NBO                 Occupancy    Energy   (geminal,vicinal,remote)
 ===============================================================================
 Molecular unit  1  (C4H2)
 ------ Lewis --------------------------------------
    1. CR ( 1) C  2             1.99826   -11.08917  18(v),48(v),45(v),15(g)
                                                     14(g),23(v)
    2. CR ( 1) C  3             1.99856   -11.09493  14(v),19(v),15(g),32(v)
                                                     65(v)
    3. CR ( 1) C  4             1.99856   -11.09493  22(v),15(v),19(g),82(v)
                                                     48(v)
    4. CR ( 1) C  5             1.99826   -11.08917  18(v),65(v),62(v),19(g)
                                                     22(g),95(v)
    5. BD ( 1) H  1- C  2       1.98820    -0.80124  15(g),18(v),45(v),61(v)
                                                     27(g),51(v),35(g),39(g)
                                                     67(r),31(g),52(v),66(r)
                                                     32(g),34(g),69(r),33(g)
    6. BD ( 1) C  2- C  3       1.97806    -1.16129  18(g),14(g),19(v),23(v)
                                                     66(v),45(g),24(v)
    7. BD ( 2) C  2- C  3       1.95831    -0.42077  20(v),63(v)
    8. BD ( 3) C  2- C  3       1.95831    -0.42077  21(v),64(v)
    9. BD ( 1) C  3- C  4       1.97322    -0.98885  15(g),19(g),14(v),22(v)
                                                     31(v),81(v),61(g),78(g)
                                                     34(v),84(v),27(r),99(r)
                                                     51(g),68(g)
   10. BD ( 1) C  4- C  5       1.97806    -1.16129  18(g),22(g),15(v),95(v)
                                                     49(v),62(g),96(v)
   11. BD ( 2) C  4- C  5       1.95831    -0.42077  16(v),46(v)
   12. BD ( 3) C  4- C  5       1.95831    -0.42077  17(v),47(v)
   13. BD ( 1) C  5- H  6       1.98820    -0.80124  19(g),18(v),62(v),78(v)
                                                     99(g),68(v),85(g),89(g)
                                                     50(r),81(g),69(v),49(r)
                                                     82(g),84(g),52(r),83(g)
 ------ non-Lewis ----------------------------------
   14. BD*( 1) H  1- C  2       0.00803     0.70692
   15. BD*( 1) C  2- C  3       0.02031     1.34813
   16. BD*( 2) C  2- C  3       0.03881     0.31370
   17. BD*( 3) C  2- C  3       0.03881     0.31370
   18. BD*( 1) C  3- C  4       0.03243     0.85132
   19. BD*( 1) C  4- C  5       0.02031     1.34813
   20. BD*( 2) C  4- C  5       0.03881     0.31370
   21. BD*( 3) C  4- C  5       0.03881     0.31370
   22. BD*( 1) C  5- H  6       0.00803     0.70692
   23. RY ( 1) H  1             0.00088     2.50250
   24. RY ( 2) H  1             0.00018     1.81596
   25. RY ( 3) H  1             0.00008     1.89148
   26. RY ( 4) H  1             0.00008     1.89148
   27. RY ( 5) H  1             0.00001     2.25081
   28. RY ( 6) H  1             0.00000     1.08487
   29. RY ( 1) C  2             0.00066     0.47651
   30. RY ( 2) C  2             0.00066     0.47651
   31. RY ( 3) C  2             0.00043     3.12388
   32. RY ( 4) C  2             0.00030     1.31678
   33. RY ( 5) C  2             0.00008     2.11357
   34. RY ( 6) C  2             0.00004     2.79941
   35. RY ( 7) C  2             0.00002     2.36815
   36. RY ( 8) C  2             0.00000     2.61239
   37. RY ( 9) C  2             0.00000     1.19804
   38. RY (10) C  2             0.00000     2.61239
   39. RY (11) C  2             0.00000    13.07359
   40. RY (12) C  2             0.00000     1.62134
   41. RY (13) C  2             0.00000     2.13322
   42. RY (14) C  2             0.00000     2.13322
   43. RY (15) C  2             0.00000     1.62134
   44. RY (16) C  2             0.00000     1.19804
   45. RY ( 1) C  3             0.00228     2.75400
   46. RY ( 2) C  3             0.00214     0.91663
   47. RY ( 3) C  3             0.00214     0.91663
   48. RY ( 4) C  3             0.00087     0.74738
   49. RY ( 5) C  3             0.00052     3.89225
   50. RY ( 6) C  3             0.00009     7.13213
   51. RY ( 7) C  3             0.00004     4.61326
   52. RY ( 8) C  3             0.00000     8.26876
   53. RY ( 9) C  3             0.00000     1.84382
   54. RY (10) C  3             0.00000     1.71056
   55. RY (11) C  3             0.00000     1.84382
   56. RY (12) C  3             0.00000     1.71056
   57. RY (13) C  3             0.00000     1.62115
   58. RY (14) C  3             0.00000     1.90969
   59. RY (15) C  3             0.00000     1.90969
   60. RY (16) C  3             0.00000     1.62115
   61. RY (17) C  3             0.00000    16.38277
   62. RY ( 1) C  4             0.00228     2.75400
   63. RY ( 2) C  4             0.00214     0.91663
   64. RY ( 3) C  4             0.00214     0.91663
   65. RY ( 4) C  4             0.00087     0.74738
   66. RY ( 5) C  4             0.00052     3.89225
   67. RY ( 6) C  4             0.00009     7.13213
   68. RY ( 7) C  4             0.00004     4.61326
   69. RY ( 8) C  4             0.00000     8.26877
   70. RY ( 9) C  4             0.00000     1.84382
   71. RY (10) C  4             0.00000     1.71056
   72. RY (11) C  4             0.00000     1.84382
   73. RY (12) C  4             0.00000     1.71056
   74. RY (13) C  4             0.00000     1.62115
   75. RY (14) C  4             0.00000     1.90969
   76. RY (15) C  4             0.00000     1.90969
   77. RY (16) C  4             0.00000     1.62115
   78. RY (17) C  4             0.00000    16.38277
   79. RY ( 1) C  5             0.00066     0.47651
   80. RY ( 2) C  5             0.00066     0.47651
   81. RY ( 3) C  5             0.00043     3.12388
   82. RY ( 4) C  5             0.00030     1.31678
   83. RY ( 5) C  5             0.00008     2.11357
   84. RY ( 6) C  5             0.00004     2.79941
   85. RY ( 7) C  5             0.00002     2.36814
   86. RY ( 8) C  5             0.00000     2.61239
   87. RY ( 9) C  5             0.00000     1.19804
   88. RY (10) C  5             0.00000     2.61239
   89. RY (11) C  5             0.00000    13.07360
   90. RY (12) C  5             0.00000     1.62134
   91. RY (13) C  5             0.00000     2.13322
   92. RY (14) C  5             0.00000     2.13322
   93. RY (15) C  5             0.00000     1.62134
   94. RY (16) C  5             0.00000     1.19804
   95. RY ( 1) H  6             0.00088     2.50250
   96. RY ( 2) H  6             0.00018     1.81596
   97. RY ( 3) H  6             0.00008     1.89148
   98. RY ( 4) H  6             0.00008     1.89148
   99. RY ( 5) H  6             0.00001     2.25081
  100. RY ( 6) H  6             0.00000     1.08487
          -------------------------------
                 Total Lewis   25.73264  ( 98.9717%)
           Valence non-Lewis    0.24434  (  0.9398%)
           Rydberg non-Lewis    0.02302  (  0.0885%)
          -------------------------------
               Total unit  1   26.00000  (100.0000%)
              Charge unit  1    0.00000

 $CHOOSE
   BOND S 1 2 T 2 3 S 3 4 T 4 5 S 5 6 END
 $END

 Maximum scratch memory used by NBO was 213120 words
Archival summary:
1\1\electron.local\SP\HF\BasisUnspecified\6\ThuJul3113:20:002014ThuJul3113:20:002014\0\\#,HF,BasisUnspecified,\\0,1\C\C,1,1.18537\H,2,1.05543,1,180\C,1,1.38615,2,180,3,0,0\C,4,1.18537,1,180,3,0,0\H,5,1.05543,4,180,3,0,0\\HF=-152.53756\\@

 Total job time:  3.74s(wall), 3.33s(cpu) 
 Thu Jul 31 13:20:00 2014

        *************************************************************
        *                                                           *
        *  Thank you very much for using Q-Chem.  Have a nice day.  *
        *                                                           *
        *************************************************************


