
Running Job 1 of 1 ch3.inp
qchem ch3.inp_67665.0 /Users/ericg/scr/qchem67665/ 1
                  Welcome to Q-Chem
     A Quantum Leap Into The Future Of Chemistry


 Q-Chem 4.2, Q-Chem, Inc., Pleasanton, CA (2014).

 Y. Shao,  Z. Gan,  E. Epifanovsky,  A. T. B. Gilbert,  M. Wormit,  
 J. Kussmann,  A. W. Lange,  A. Behn,  J. Deng,  X. Feng,  D. Ghosh,  
 M. Goldey,  P. R. Horn,  L. D. Jacobson,  I. Kaliman,  R. Z. Khaliullin,  
 T. Kus,  A. Landau,  J. Liu,  E. I. Proynov,  Y. M. Rhee,  R. M. Richard,  
 M. A. Rohrdanz,  R. P. Steele,  E. J. Sundstrom,  H. L. Woodcock III,  
 P. M. Zimmerman,  D. Zuev,  B. Albrecht,  E. Alguire,  B. Austin,  
 G. J. O. Beran,  Y. A. Bernard,  E. Berquist,  K. Brandhorst,  
 K. B. Bravaya,  S. T. Brown,  D. Casanova,  C.-M. Chang,  Y. Chen,  
 S. H. Chien,  K. D. Closser,  D. L. Crittenden,  M. Diedenhofen,  
 R. A. DiStasio Jr.,  H. Do,  A. D. Dutoi,  R. G. Edgar,  S. Fatehi,  
 L. Fusti-Molnar,  A. Ghysels,  A. Golubeva-Zadorozhnaya,  J. Gomes,  
 M. W. D. Hanson-Heine,  P. H. P. Harbach,  A. W. Hauser,  E. G. Hohenstein,  
 Z. C. Holden,  T.-C. Jagau,  H. Ji,  B. Kaduk,  K. Khistyaev,  Jaehoon Kim,  
 Jihan Kim,  R. A. King,  P. Klunzinger,  D. Kosenkov,  T. Kowalczyk,  
 C. M. Krauter,  K. U. Lao,  A. Laurent,  K. V. Lawler,  S. V. Levchenko,  
 C. Y. Lin,  F. Liu,  E. Livshits,  R. C. Lochan,  A. Luenser,  P. Manohar,  
 S. F. Manzer,  S.-P. Mao,  N. Mardirossian,  A. V. Marenich,  S. A. Maurer,  
 N. J. Mayhall,  C. M. Oana,  R. Olivares-Amaya,  D. P. O'Neill,  
 J. A. Parkhill,  T. M. Perrine,  R. Peverati,  P. A. Pieniazek,  A. Prociuk,  
 D. R. Rehn,  E. Rosta,  N. J. Russ,  N. Sergueev,  S. M. Sharada,  
 S. Sharma,  D. W. Small,  A. Sodt,  T. Stein,  D. Stuck,  Y.-C. Su,  
 A. J. W. Thom,  T. Tsuchimochi,  L. Vogt,  O. Vydrov,  T. Wang,  
 M. A. Watson,  J. Wenzel,  A. White,  C. F. Williams,  V. Vanovschi,  
 S. Yeganeh,  S. R. Yost,  Z.-Q. You,  I. Y. Zhang,  X. Zhang,  Y. Zhao,  
 B. R. Brooks,  G. K. L. Chan,  D. M. Chipman,  C. J. Cramer,  
 W. A. Goddard III,  M. S. Gordon,  W. J. Hehre,  A. Klamt,  
 H. F. Schaefer III,  M. W. Schmidt,  C. D. Sherrill,  D. G. Truhlar,  
 A. Warshel,  X. Xu,  A. Aspuru-Guzik,  R. Baer,  A. T. Bell,  N. A. Besley,  
 J.-D. Chai,  A. Dreuw,  B. D. Dunietz,  T. R. Furlani,  S. R. Gwaltney,  
 C.-P. Hsu,  Y. Jung,  J. Kong,  D. S. Lambrecht,  W. Liang,  C. Ochsenfeld,  
 V. A. Rassolov,  L. V. Slipchenko,  J. E. Subotnik,  T. Van Voorhis,  
 J. M. Herbert,  A. I. Krylov,  P. M. W. Gill,  M. Head-Gordon

 Contributors to earlier versions of Q-Chem not listed above: 
 R. D. Adamson,  J. Baker,  E. F. C. Byrd,  A. K. Chakraborty,  C.-L. Cheng,  
 H. Dachsel,  R. J. Doerksen,  G. Hawkins,  A. Heyden,  S. Hirata,  
 G. Kedziora,  F. J. Keil,  C. Kelley,  P. P. Korambath,  W. Kurlancheek,  
 A. M. Lee,  M. S. Lee,  D. Liotard,  I. Lotan,  P. E. Maslen,  N. Nair,  
 D. Neuhauser,  R. Olson,  B. Peters,  J. Ritchie,  N. E. Schultz,  
 N. Shenvi,  A. C. Simmonett,  K. S. Thanthiriwatte,  Q. Wu,  W. Zhang

 Q-Chem 4.2.0.0  for Mac (Intel) OS X

 Parts of Q-Chem use Armadillo 4.100.2 (Dirt Cruiser).
 http://arma.sourceforge.net/

 Q-Chem begins on Thu Jul 31 13:22:19 2014  

Host: electron.local
0

     Scratch files written to /Users/ericg/scr/qchem67665//
 May1314 814_zgan 0   
Processing $rem in /opt/qchem/config/preferences.
 MEM_TOTAL  2000 
Here CATS
Finally everything over in PARseQInput

--------------------------------------------------------------
User input:
--------------------------------------------------------------
$molecule
0 2
C       0.000000       0.000000       0.000000
H       0.000000       1.073600       0.000000
H       0.929765      -0.536800       0.000000
H      -0.929765      -0.536800       0.000000
$end

$rem
basis = 6-31g*
method = hf
nbo = true
run_nbo6 = true
$end

$nbo
$end


--------------------------------------------------------------
 Atom   4: ( -0.5368000000, -0.9297650000,  0.0000000000)
         ->( -0.5368000000, -0.9297648735,  0.0000000000)
 Atom   3: ( -0.5368000000,  0.9297650000,  0.0000000000)
         ->( -0.5368000000,  0.9297648735,  0.0000000000)
 ----------------------------------------------------------------
             Standard Nuclear Orientation (Angstroms)
    I     Atom           X                Y                Z
 ----------------------------------------------------------------
    1      C       0.0000000000     0.0000000000     0.0000000000
    2      H       1.0736000000     0.0000000000     0.0000000000
    3      H      -0.5368000000     0.9297648735     0.0000000000
    4      H      -0.5368000000    -0.9297648735     0.0000000000
 ----------------------------------------------------------------
 Molecular Point Group                 D3h   NOp = 12
 Largest Abelian Subgroup              C2v   NOp =  4
 Nuclear Repulsion Energy =     9.7259229689 hartrees
 There are        5 alpha and        4 beta electrons
 Requested basis set is 6-31G(d)
 There are 10 shells and 21 basis functions

Total QAlloc Memory Limit   2000 MB
Mega-Array Size        61 MB
MEM_STATIC part        62 MB

                       Distance Matrix (Angstroms)
             C (  1)   H (  2)   H (  3)
   H (  2)  1.073600
   H (  3)  1.073600  1.859530
   H (  4)  1.073600  1.859530  1.859530
 
 A cutoff of  1.0D-08 yielded     55 shell pairs
 There are       258 function pairs
 Smallest overlap matrix eigenvalue = 2.71E-02

  Scale SEOQF with 1.000000e+00/1.000000e+00/1.000000e+00

 Standard Electronic Orientation quadrupole field applied
 Nucleus-field energy     =     0.0000000019 hartrees
 Guess from superposition of atomic densities
 Warning:  Energy on first SCF cycle will be non-variational
 An unrestricted Hartree-Fock SCF calculation will be
 performed using Pulay DIIS extrapolation
 SCF converges when DIIS error is below 1.0E-05
 ---------------------------------------
  Cycle       Energy         DIIS Error
 ---------------------------------------
    1     -39.4836253293      1.36E-01
    2     -39.5456743259      1.05E-02
    3     -39.5574859861      2.37E-03
    4     -39.5587203488      3.02E-04
    5     -39.5589170074      1.26E-04
    6     -39.5589661769      4.74E-05
    7     -39.5589878075      5.83E-06 Convergence criterion met
 ---------------------------------------
 <S^2> = 0.7613
 SCF time:  CPU 0.16 s  wall 0.21 s
 SCF   energy in the final basis set = -39.5589878075
 Total energy in the final basis set = -39.5589878075
 Analysis of SCF Wavefunction
 
 --------------------------------------------------------------
             Orbital Energies (a.u.) and Symmetries
 --------------------------------------------------------------
 
 Alpha MOs, Unrestricted
 -- Occupied --                  
-11.229  -0.947  -0.579  -0.579  -0.383
  1 A1'   2 A1'   1 E'    1 E'    1 A2"                                        
 -- Virtual --                   
  0.255   0.332   0.332   0.738   0.738   0.746   0.891   1.204
  3 A1'   2 E'    2 E'    3 E'    3 E'    2 A2"   4 A1'   5 A1'                
  1.208   1.208   1.924   1.924   2.329   2.530   2.530   4.497
  4 E'    4 E'    1 E"    1 E"    6 A1'   5 E'    5 E'    7 A1'                
 
 Beta MOs, Unrestricted
 -- Occupied --                  
-11.205  -0.854  -0.564  -0.564
  1 A1'   2 A1'   1 E'    1 E'                                                 
 -- Virtual --                   
  0.157   0.281   0.340   0.340   0.749   0.749   0.895   0.937
  1 A2"   3 A1'   2 E'    2 E'    3 E'    3 E'    2 A2"   4 A1'                
  1.217   1.217   1.238   2.023   2.023   2.418   2.546   2.546
  4 E'    4 E'    5 A1'   1 E"    1 E"    6 A1'   5 E'    5 E'                 
  4.529
  7 A1'                                                                        
 --------------------------------------------------------------
 
          Ground-State Mulliken Net Atomic Charges

     Atom                 Charge (a.u.)    Spin (a.u.)
  --------------------------------------------------------
      1 C                    -0.526200       1.290370
      2 H                     0.175400      -0.096790
      3 H                     0.175400      -0.096790
      4 H                     0.175400      -0.096790
  --------------------------------------------------------
  Sum of atomic charges =     0.000000
  Sum of spin   charges =     1.000000

 -----------------------------------------------------------------
                    Cartesian Multipole Moments
 -----------------------------------------------------------------
    Charge (ESU x 10^10)
                 0.0000
    Dipole Moment (Debye)
         X       0.0000      Y       0.0000      Z       0.0000
       Tot       0.0000
    Quadrupole Moments (Debye-Ang)
        XX      -7.1122     XY       0.0000     YY      -7.1122
        XZ       0.0000     YZ       0.0000     ZZ      -8.7096
    Octopole Moments (Debye-Ang^2)
       XXX       0.8018    XXY       0.0000    XYY      -0.8018
       YYY       0.0000    XXZ       0.0000    XYZ       0.0000
       YYZ       0.0000    XZZ       0.0000    YZZ       0.0000
       ZZZ       0.0000
    Hexadecapole Moments (Debye-Ang^3)
      XXXX     -13.9331   XXXY       0.0000   XXYY      -4.6444
      XYYY       0.0000   YYYY     -13.9331   XXXZ       0.0000
      XXYZ       0.0000   XYYZ       0.0000   YYYZ       0.0000
      XXZZ      -4.1745   XYZZ       0.0000   YYZZ      -4.1745
      XZZZ       0.0000   YZZZ       0.0000   ZZZZ      -9.1209
 -----------------------------------------------------------------

 Begin NBO analysis for the ground state 

 fchar_ptr            1 /
 fchar_ptr            2 U
 fchar_ptr            3 s
 fchar_ptr            4 e
 fchar_ptr            5 r
 fchar_ptr            6 s
 fchar_ptr            7 /
 fchar_ptr            8 e
 fchar_ptr            9 r
 fchar_ptr           10 i
 fchar_ptr           11 c
 fchar_ptr           12 g
 fchar_ptr           13 /
 fchar_ptr           14 n
 fchar_ptr           15 b
 fchar_ptr           16 o
 fchar_ptr           17 6
 fchar_ptr           18 /
 fchar_ptr           19 b
 fchar_ptr           20 i
 fchar_ptr           21 n
 fchar_ptr           22 /
 fchar_ptr           23 n
 fchar_ptr           24 b
 fchar_ptr           25 o
 fchar_ptr           26 6
 fchar_ptr           27 .
 fchar_ptr           28 i
 fchar_ptr           29 4
 fchar_ptr           30 .
 fchar_ptr           31 e
 fchar_ptr           32 x
 fchar_ptr           33 e
 fchar_ptr           34  
 i=           1 atno=           6 znuc=           6
 i=           2 atno=           1 znuc=           1
 i=           3 atno=           1 znuc=           1
 i=           4 atno=           1 znuc=           1
 Carts
             1             2             3             4
    1    0.00000000    2.02880997   -1.01440498   -1.01440498
    2    0.00000000    0.00000000    1.75700097   -1.75700097
    3    0.00000000    0.00000000    0.00000000    0.00000000
 Carts
             1             2             3             4
    1    0.00000000    1.07360000   -0.53680000   -0.53680000
    2    0.00000000    0.00000000    0.92976487   -0.92976487
    3    0.00000000    0.00000000    0.00000000    0.00000000
 Sao
             1             2             3             4             5
    1    1.00000000    0.21905887    0.00000000    0.00000000    0.00000000
    2    0.21905887    1.00000000    0.00000000    0.00000000    0.00000000
    3    0.00000000    0.00000000    1.00000000    0.00000000    0.00000000
    4    0.00000000    0.00000000    0.00000000    1.00000000    0.00000000
    5    0.00000000    0.00000000    0.00000000    0.00000000    1.00000000
    6    0.18426105    0.81227307    0.00000000    0.00000000    0.00000000
    7    0.00000000    0.00000000    0.56975406    0.00000000    0.00000000
    8    0.00000000    0.00000000    0.00000000    0.56975406    0.00000000
    9    0.00000000    0.00000000    0.00000000    0.00000000    0.56975406
   10    0.07910271    0.71023506    0.00000000    0.00000000    0.00000000
   11    0.00000000    0.00000000    0.00000000    0.00000000    0.00000000
   12    0.07910271    0.71023506    0.00000000    0.00000000    0.00000000
   13    0.00000000    0.00000000    0.00000000    0.00000000    0.00000000
   14    0.00000000    0.00000000    0.00000000    0.00000000    0.00000000
   15    0.07910271    0.71023506    0.00000000    0.00000000    0.00000000
   16    0.03517139    0.28413301    0.37976179    0.00000000    0.00000000
   17    0.09404009    0.48356073    0.26601216    0.00000000    0.00000000
   18    0.03517139    0.28413301   -0.18988089    0.32888335    0.00000000
   19    0.09404009    0.48356073   -0.13300608    0.23037329    0.00000000
   20    0.03517139    0.28413301   -0.18988089   -0.32888335    0.00000000
   21    0.09404009    0.48356073   -0.13300608   -0.23037329    0.00000000
             6             7             8             9            10
    1    0.18426105    0.00000000    0.00000000    0.00000000    0.07910271
    2    0.81227307    0.00000000    0.00000000    0.00000000    0.71023506
    3    0.00000000    0.56975406    0.00000000    0.00000000    0.00000000
    4    0.00000000    0.00000000    0.56975406    0.00000000    0.00000000
    5    0.00000000    0.00000000    0.00000000    0.56975406    0.00000000
    6    1.00000000    0.00000000    0.00000000    0.00000000    0.62993620
    7    0.00000000    1.00000000    0.00000000    0.00000000    0.00000000
    8    0.00000000    0.00000000    1.00000000    0.00000000    0.00000000
    9    0.00000000    0.00000000    0.00000000    1.00000000    0.00000000
   10    0.62993620    0.00000000    0.00000000    0.00000000    1.00000000
   11    0.00000000    0.00000000    0.00000000    0.00000000    0.00000000
   12    0.62993620    0.00000000    0.00000000    0.00000000    0.33333333
   13    0.00000000    0.00000000    0.00000000    0.00000000    0.00000000
   14    0.00000000    0.00000000    0.00000000    0.00000000    0.00000000
   15    0.62993620    0.00000000    0.00000000    0.00000000    0.33333333
   16    0.38360302    0.51612111    0.00000000    0.00000000    0.46883225
   17    0.71192958    0.57990305    0.00000000    0.00000000    0.43690632
   18    0.38360302   -0.25806056    0.44697399    0.00000000    0.20957135
   19    0.71192958   -0.28995153    0.50221078    0.00000000    0.37721300
   20    0.38360302   -0.25806056   -0.44697399    0.00000000    0.20957135
   21    0.71192958   -0.28995153   -0.50221078    0.00000000    0.37721300
            11            12            13            14            15
    1    0.00000000    0.07910271    0.00000000    0.00000000    0.07910271
    2    0.00000000    0.71023506    0.00000000    0.00000000    0.71023506
    3    0.00000000    0.00000000    0.00000000    0.00000000    0.00000000
    4    0.00000000    0.00000000    0.00000000    0.00000000    0.00000000
    5    0.00000000    0.00000000    0.00000000    0.00000000    0.00000000
    6    0.00000000    0.62993620    0.00000000    0.00000000    0.62993620
    7    0.00000000    0.00000000    0.00000000    0.00000000    0.00000000
    8    0.00000000    0.00000000    0.00000000    0.00000000    0.00000000
    9    0.00000000    0.00000000    0.00000000    0.00000000    0.00000000
   10    0.00000000    0.33333333    0.00000000    0.00000000    0.33333333
   11    1.00000000    0.00000000    0.00000000    0.00000000    0.00000000
   12    0.00000000    1.00000000    0.00000000    0.00000000    0.33333333
   13    0.00000000    0.00000000    1.00000000    0.00000000    0.00000000
   14    0.00000000    0.00000000    0.00000000    1.00000000    0.00000000
   15    0.00000000    0.33333333    0.00000000    0.00000000    1.00000000
   16    0.00000000    0.12315105    0.00000000    0.00000000    0.12315105
   17    0.00000000    0.35731522    0.00000000    0.00000000    0.35731522
   18   -0.25926090    0.38241195    0.00000000    0.00000000    0.12315105
   19   -0.05969333    0.41700855    0.00000000    0.00000000    0.35731522
   20    0.25926090    0.38241195    0.00000000    0.00000000    0.12315105
   21    0.05969333    0.41700855    0.00000000    0.00000000    0.35731522
            16            17            18            19            20
    1    0.03517139    0.09404009    0.03517139    0.09404009    0.03517139
    2    0.28413301    0.48356073    0.28413301    0.48356073    0.28413301
    3    0.37976179    0.26601216   -0.18988089   -0.13300608   -0.18988089
    4    0.00000000    0.00000000    0.32888335    0.23037329   -0.32888335
    5    0.00000000    0.00000000    0.00000000    0.00000000    0.00000000
    6    0.38360302    0.71192958    0.38360302    0.71192958    0.38360302
    7    0.51612111    0.57990305   -0.25806056   -0.28995153   -0.25806056
    8    0.00000000    0.00000000    0.44697399    0.50221078   -0.44697399
    9    0.00000000    0.00000000    0.00000000    0.00000000    0.00000000
   10    0.46883225    0.43690632    0.20957135    0.37721300    0.20957135
   11    0.00000000    0.00000000   -0.25926090   -0.05969333    0.25926090
   12    0.12315105    0.35731522    0.38241195    0.41700855    0.38241195
   13    0.00000000    0.00000000    0.00000000    0.00000000    0.00000000
   14    0.00000000    0.00000000    0.00000000    0.00000000    0.00000000
   15    0.12315105    0.35731522    0.12315105    0.35731522    0.12315105
   16    1.00000000    0.65829205    0.01314351    0.13028041    0.01314351
   17    0.65829205    1.00000000    0.13028041    0.36944772    0.13028041
   18    0.01314351    0.13028041    1.00000000    0.65829205    0.01314351
   19    0.13028041    0.36944772    0.65829205    1.00000000    0.13028041
   20    0.01314351    0.13028041    0.01314351    0.13028041    1.00000000
   21    0.13028041    0.36944772    0.13028041    0.36944772    0.65829205
            21
    1    0.09404009
    2    0.48356073
    3   -0.13300608
    4   -0.23037329
    5    0.00000000
    6    0.71192958
    7   -0.28995153
    8   -0.50221078
    9    0.00000000
   10    0.37721300
   11    0.05969333
   12    0.41700855
   13    0.00000000
   14    0.00000000
   15    0.35731522
   16    0.13028041
   17    0.36944772
   18    0.13028041
   19    0.36944772
   20    0.65829205
   21    1.00000000
 Sao packed
             1             2             3             4             5
    1    1.00000000    0.21905887    1.00000000    0.00000000    0.00000000
             6             7             8             9            10
    1    1.00000000    0.00000000    0.00000000    0.00000000    1.00000000
 BOao
             1             2             3             4             5
    1    1.03162592   -0.04894490   -0.00000000    0.00000000   -0.00000000
    2   -0.04894490    0.15129152   -0.00000000    0.00000000   -0.00000000
    3   -0.00000000   -0.00000000    0.20956122   -0.00000000   -0.00000000
    4    0.00000000    0.00000000   -0.00000000    0.20956122   -0.00000000
    5   -0.00000000   -0.00000000   -0.00000000   -0.00000000    0.35161688
    6   -0.09588764    0.16469355    0.00000000   -0.00000000    0.00000000
    7   -0.00000000    0.00000000    0.10366629    0.00000000   -0.00000000
    8   -0.00000000    0.00000000   -0.00000000    0.10366629    0.00000000
    9    0.00000000    0.00000000   -0.00000000   -0.00000000    0.31746464
   10   -0.00542599    0.00424499    0.01312440    0.00000000   -0.00000000
   11    0.00000000   -0.00000000    0.00000000   -0.01515475    0.00000000
   12   -0.00542599    0.00424499   -0.01312440    0.00000000   -0.00000000
   13   -0.00000000   -0.00000000   -0.00000000    0.00000000    0.00000000
   14    0.00000000   -0.00000000   -0.00000000    0.00000000   -0.00000000
   15   -0.00263687    0.00018622   -0.00000000    0.00000000   -0.00000000
   16   -0.02833571    0.05371125    0.12384881   -0.00000000   -0.00000000
   17   -0.00415107    0.01179721    0.08887185   -0.00000000   -0.00000000
   18   -0.02833571    0.05371125   -0.06192441    0.10725622    0.00000000
   19   -0.00415107    0.01179722   -0.04443593    0.07696528   -0.00000000
   20   -0.02833571    0.05371125   -0.06192441   -0.10725622    0.00000000
   21   -0.00415107    0.01179722   -0.04443593   -0.07696528    0.00000000
             6             7             8             9            10
    1   -0.09588764   -0.00000000   -0.00000000    0.00000000   -0.00542599
    2    0.16469355    0.00000000    0.00000000    0.00000000    0.00424499
    3    0.00000000    0.10366629   -0.00000000   -0.00000000    0.01312440
    4   -0.00000000    0.00000000    0.10366629   -0.00000000    0.00000000
    5    0.00000000   -0.00000000    0.00000000    0.31746464   -0.00000000
    6    0.18106993    0.00000000   -0.00000000    0.00000000    0.00479102
    7    0.00000000    0.05128191    0.00000000   -0.00000000    0.00649241
    8   -0.00000000    0.00000000    0.05128191    0.00000000    0.00000000
    9    0.00000000   -0.00000000    0.00000000    0.28662958   -0.00000000
   10    0.00479102    0.00649241    0.00000000   -0.00000000    0.00095723
   11    0.00000000   -0.00000000   -0.00749679    0.00000000   -0.00000000
   12    0.00479102   -0.00649241    0.00000000   -0.00000000   -0.00068668
   13    0.00000000   -0.00000000    0.00000000    0.00000000    0.00000000
   14   -0.00000000   -0.00000000    0.00000000   -0.00000000   -0.00000000
   15    0.00031080   -0.00000000    0.00000000   -0.00000000    0.00001551
   16    0.05892890    0.06126585    0.00000000   -0.00000000    0.00930718
   17    0.01285629    0.04396336   -0.00000000    0.00000000    0.00589821
   18    0.05892890   -0.03063293    0.05305778    0.00000000   -0.00232743
   19    0.01285629   -0.02198168    0.03807338   -0.00000000   -0.00245059
   20    0.05892890   -0.03063293   -0.05305778    0.00000000   -0.00232743
   21    0.01285629   -0.02198168   -0.03807338   -0.00000000   -0.00245059
            11            12            13            14            15
    1    0.00000000   -0.00542599   -0.00000000    0.00000000   -0.00263687
    2   -0.00000000    0.00424499   -0.00000000   -0.00000000    0.00018622
    3    0.00000000   -0.01312440   -0.00000000   -0.00000000   -0.00000000
    4   -0.01515475    0.00000000    0.00000000    0.00000000    0.00000000
    5    0.00000000   -0.00000000    0.00000000   -0.00000000   -0.00000000
    6    0.00000000    0.00479102    0.00000000   -0.00000000    0.00031080
    7   -0.00000000   -0.00649241   -0.00000000   -0.00000000   -0.00000000
    8   -0.00749679    0.00000000    0.00000000    0.00000000    0.00000000
    9    0.00000000   -0.00000000    0.00000000   -0.00000000   -0.00000000
   10   -0.00000000   -0.00068668    0.00000000   -0.00000000    0.00001551
   11    0.00109594   -0.00000000   -0.00000000   -0.00000000   -0.00000000
   12   -0.00000000    0.00095723    0.00000000   -0.00000000    0.00001551
   13   -0.00000000    0.00000000    0.00000000   -0.00000000    0.00000000
   14   -0.00000000   -0.00000000   -0.00000000    0.00000000   -0.00000000
   15   -0.00000000    0.00001551    0.00000000   -0.00000000    0.00000676
   16    0.00000000   -0.00620563    0.00000000   -0.00000000    0.00009391
   17    0.00000000   -0.00523352   -0.00000000   -0.00000000    0.00001537
   18   -0.00775640    0.00542898    0.00000000    0.00000000    0.00009391
   19   -0.00556587    0.00311528    0.00000000    0.00000000    0.00001537
   20    0.00775640    0.00542898    0.00000000   -0.00000000    0.00009391
   21    0.00556587    0.00311528    0.00000000   -0.00000000    0.00001537
            16            17            18            19            20
    1   -0.02833571   -0.00415107   -0.02833571   -0.00415107   -0.02833571
    2    0.05371125    0.01179721    0.05371125    0.01179722    0.05371125
    3    0.12384881    0.08887185   -0.06192441   -0.04443593   -0.06192441
    4   -0.00000000   -0.00000000    0.10725622    0.07696528   -0.10725622
    5   -0.00000000   -0.00000000    0.00000000   -0.00000000    0.00000000
    6    0.05892890    0.01285629    0.05892890    0.01285629    0.05892890
    7    0.06126585    0.04396336   -0.03063293   -0.02198168   -0.03063293
    8    0.00000000   -0.00000000    0.05305778    0.03807338   -0.05305778
    9   -0.00000000    0.00000000    0.00000000   -0.00000000    0.00000000
   10    0.00930718    0.00589821   -0.00232743   -0.00245059   -0.00232743
   11    0.00000000    0.00000000   -0.00775640   -0.00556587    0.00775640
   12   -0.00620563   -0.00523352    0.00542898    0.00311528    0.00542898
   13    0.00000000   -0.00000000    0.00000000    0.00000000    0.00000000
   14   -0.00000000   -0.00000000    0.00000000    0.00000000   -0.00000000
   15    0.00009391    0.00001537    0.00009391    0.00001537    0.00009391
   16    0.09238026    0.05671431   -0.01741006   -0.02206940   -0.01741006
   17    0.05671431    0.03860927   -0.02206940   -0.01792461   -0.02206940
   18   -0.01741006   -0.02206940    0.09238026    0.05671431   -0.01741006
   19   -0.02206940   -0.01792461    0.05671431    0.03860927   -0.02206940
   20   -0.01741006   -0.02206940   -0.01741006   -0.02206940    0.09238026
   21   -0.02206940   -0.01792461   -0.02206940   -0.01792461    0.05671431
            21
    1   -0.00415107
    2    0.01179722
    3   -0.04443593
    4   -0.07696528
    5    0.00000000
    6    0.01285629
    7   -0.02198168
    8   -0.03807338
    9   -0.00000000
   10   -0.00245059
   11    0.00556587
   12    0.00311528
   13    0.00000000
   14   -0.00000000
   15    0.00001537
   16   -0.02206940
   17   -0.01792461
   18   -0.02206940
   19   -0.01792461
   20    0.05671431
   21    0.03860927
 Fao
             1             2             3             4             5
    1  -11.22475161   -2.65239157   -0.00000000   -0.00000000    0.00000000
    2   -2.65239157   -1.20473839   -0.00000000    0.00000000   -0.00000000
    3   -0.00000000   -0.00000000   -0.14230093    0.00000000   -0.00000000
    4   -0.00000000    0.00000000    0.00000000   -0.14230093   -0.00000000
    5    0.00000000   -0.00000000   -0.00000000   -0.00000000   -0.16463692
    6   -2.19714262   -1.33336806   -0.00000000    0.00000000    0.00000000
    7    0.00000000   -0.00000000   -0.51111267    0.00000000    0.00000000
    8   -0.00000000    0.00000000   -0.00000000   -0.51111267   -0.00000000
    9    0.00000000    0.00000000   -0.00000000   -0.00000000   -0.46061186
   10   -1.01598191   -0.77767116   -0.10493747    0.00000000    0.00000000
   11   -0.00000000    0.00000000    0.00000000    0.18175702   -0.00000000
   12   -1.01598191   -0.77767116    0.10493747   -0.00000000   -0.00000000
   13    0.00000000    0.00000000   -0.00000000    0.00000000   -0.00000000
   14    0.00000000    0.00000000    0.00000000   -0.00000000    0.00000000
   15   -1.02124835   -0.68771567   -0.00000000    0.00000000   -0.00000000
   16   -0.43484710   -0.55641021   -0.48278296    0.00000000    0.00000000
   17   -1.12821949   -0.85070858   -0.31215350   -0.00000000    0.00000000
   18   -0.43484710   -0.55641021    0.24139148   -0.41810231    0.00000000
   19   -1.12821949   -0.85070858    0.15607675   -0.27033286   -0.00000000
   20   -0.43484710   -0.55641021    0.24139148    0.41810231   -0.00000000
   21   -1.12821949   -0.85070858    0.15607675    0.27033286   -0.00000000
             6             7             8             9            10
    1   -2.19714262    0.00000000   -0.00000000    0.00000000   -1.01598191
    2   -1.33336806   -0.00000000    0.00000000    0.00000000   -0.77767116
    3   -0.00000000   -0.51111267   -0.00000000   -0.00000000   -0.10493747
    4    0.00000000    0.00000000   -0.51111267   -0.00000000    0.00000000
    5    0.00000000    0.00000000   -0.00000000   -0.46061186    0.00000000
    6   -1.20893815   -0.00000000    0.00000000    0.00000000   -0.84513230
    7   -0.00000000   -0.24829879   -0.00000000    0.00000000   -0.10113189
    8    0.00000000   -0.00000000   -0.24829879   -0.00000000    0.00000000
    9    0.00000000    0.00000000   -0.00000000   -0.11505438   -0.00000000
   10   -0.84513230   -0.10113189    0.00000000   -0.00000000    0.39043672
   11    0.00000000    0.00000000    0.17516556    0.00000000    0.00000000
   12   -0.84513230    0.10113189   -0.00000000    0.00000000   -0.80697000
   13    0.00000000   -0.00000000    0.00000000    0.00000000    0.00000000
   14    0.00000000   -0.00000000   -0.00000000    0.00000000    0.00000000
   15   -0.73517124   -0.00000000    0.00000000    0.00000000   -0.74453133
   16   -0.52573651   -0.38377266    0.00000000    0.00000000   -0.38455629
   17   -0.76282435   -0.16933912   -0.00000000   -0.00000000   -0.61924381
   18   -0.52573651    0.19188633   -0.33235687    0.00000000   -0.36085682
   19   -0.76282435    0.08466956   -0.14665198   -0.00000000   -0.54016868
   20   -0.52573651    0.19188633    0.33235687    0.00000000   -0.36085682
   21   -0.76282435    0.08466956    0.14665198   -0.00000000   -0.54016868
            11            12            13            14            15
    1   -0.00000000   -1.01598191    0.00000000    0.00000000   -1.02124835
    2    0.00000000   -0.77767116    0.00000000    0.00000000   -0.68771567
    3    0.00000000    0.10493747   -0.00000000    0.00000000   -0.00000000
    4    0.18175702   -0.00000000    0.00000000   -0.00000000    0.00000000
    5   -0.00000000   -0.00000000   -0.00000000    0.00000000   -0.00000000
    6    0.00000000   -0.84513230    0.00000000    0.00000000   -0.73517124
    7    0.00000000    0.10113189   -0.00000000   -0.00000000   -0.00000000
    8    0.17516556   -0.00000000    0.00000000   -0.00000000    0.00000000
    9    0.00000000    0.00000000    0.00000000    0.00000000    0.00000000
   10    0.00000000   -0.80697000    0.00000000    0.00000000   -0.74453133
   11    1.79611008   -0.00000000    0.00000000    0.00000000    0.00000000
   12   -0.00000000    0.39043672    0.00000000    0.00000000   -0.74453133
   13    0.00000000    0.00000000    1.92403550    0.00000000    0.00000000
   14    0.00000000    0.00000000    0.00000000    1.92403550    0.00000000
   15    0.00000000   -0.74453133    0.00000000    0.00000000    0.57538896
   16    0.00000000   -0.35295699   -0.00000000    0.00000000   -0.36918349
   17   -0.00000000   -0.51381030    0.00000000    0.00000000   -0.49365274
   18    0.02369948   -0.37665647   -0.00000000   -0.00000000   -0.36918349
   19    0.07907513   -0.59288543   -0.00000000    0.00000000   -0.49365274
   20   -0.02369948   -0.37665647   -0.00000000   -0.00000000   -0.36918349
   21   -0.07907513   -0.59288543    0.00000000   -0.00000000   -0.49365274
            16            17            18            19            20
    1   -0.43484710   -1.12821949   -0.43484710   -1.12821949   -0.43484710
    2   -0.55641021   -0.85070858   -0.55641021   -0.85070858   -0.55641021
    3   -0.48278296   -0.31215350    0.24139148    0.15607675    0.24139148
    4    0.00000000   -0.00000000   -0.41810231   -0.27033286    0.41810231
    5    0.00000000    0.00000000    0.00000000   -0.00000000   -0.00000000
    6   -0.52573651   -0.76282435   -0.52573651   -0.76282435   -0.52573651
    7   -0.38377266   -0.16933912    0.19188633    0.08466956    0.19188633
    8    0.00000000   -0.00000000   -0.33235687   -0.14665198    0.33235687
    9    0.00000000   -0.00000000    0.00000000   -0.00000000    0.00000000
   10   -0.38455629   -0.61924381   -0.36085682   -0.54016868   -0.36085682
   11    0.00000000   -0.00000000    0.02369948    0.07907513   -0.02369948
   12   -0.35295699   -0.51381030   -0.37665647   -0.59288543   -0.37665647
   13   -0.00000000    0.00000000   -0.00000000   -0.00000000   -0.00000000
   14    0.00000000    0.00000000   -0.00000000    0.00000000   -0.00000000
   15   -0.36918349   -0.49365274   -0.36918349   -0.49365274   -0.36918349
   16   -0.09841079   -0.57712837   -0.05302325   -0.23299535   -0.05302325
   17   -0.57712837   -0.55416979   -0.23299535   -0.43051035   -0.23299535
   18   -0.05302325   -0.23299535   -0.09841079   -0.57712837   -0.05302325
   19   -0.23299535   -0.43051035   -0.57712837   -0.55416979   -0.23299535
   20   -0.05302325   -0.23299535   -0.05302325   -0.23299535   -0.09841079
   21   -0.23299535   -0.43051035   -0.23299535   -0.43051035   -0.57712837
            21
    1   -1.12821949
    2   -0.85070858
    3    0.15607675
    4    0.27033286
    5   -0.00000000
    6   -0.76282435
    7    0.08466956
    8    0.14665198
    9   -0.00000000
   10   -0.54016868
   11   -0.07907513
   12   -0.59288543
   13    0.00000000
   14   -0.00000000
   15   -0.49365274
   16   -0.23299535
   17   -0.43051035
   18   -0.23299535
   19   -0.43051035
   20   -0.57712837
   21   -0.55416979
 itmp=   123456789  -987654321

 *********************************** NBO 6.0 ***********************************
             N A T U R A L   A T O M I C   O R B I T A L   A N D
          N A T U R A L   B O N D   O R B I T A L   A N A L Y S I S
 ***************************** development version *****************************
  (c) Copyright 1996-2014 Board of Regents of the University of Wisconsin System
      on behalf of the Theoretical Chemistry Institute.  All rights reserved.

          Cite this program as:

          NBO 6.0.  E. D. Glendening, J. K. Badenhoop, A. E. Reed,
          J. E. Carpenter, J. A. Bohmann, C. M. Morales, C. R. Landis,
          and F. Weinhold (Theoretical Chemistry Institute, University
          of Wisconsin, Madison, WI, 2013); http://nbo6.chem.wisc.edu/

 Filename set to ch3
 nat=           4
 NBas=          21
 iopen=           1
 escf=  -39.5589878075226     
 sending         462  elements

 Job title:  unknown


 NATURAL POPULATIONS:  Natural atomic orbital occupancies

  NAO Atom No lang   Type(AO)    Occupancy      Energy       Spin
 -------------------------------------------------------------------
   1    C  1  s      Cor( 1s)     1.99968     -11.11584    -0.00001
   2    C  1  s      Val( 2s)     1.18874      -0.42977     0.07712
   3    C  1  s      Ryd( 3s)     0.00020       1.02836    -0.00001
   4    C  1  s      Ryd( 4s)     0.00000       4.47789     0.00000
   5    C  1  px     Val( 2p)     1.15650      -0.04075     0.04146
   6    C  1  px     Ryd( 3p)     0.00105       0.77776    -0.00010
   7    C  1  py     Val( 2p)     1.15650      -0.04075     0.04146
   8    C  1  py     Ryd( 3p)     0.00105       0.77776    -0.00010
   9    C  1  pz     Val( 2p)     0.99513      -0.37782     0.99513
  10    C  1  pz     Ryd( 3p)     0.00487       0.74084     0.00487
  11    C  1  dxy    Ryd( 3d)     0.00250       2.43754     0.00003
  12    C  1  dxz    Ryd( 3d)     0.00000       1.92404     0.00000
  13    C  1  dyz    Ryd( 3d)     0.00000       1.92404     0.00000
  14    C  1  dx2y2  Ryd( 3d)     0.00250       2.43754     0.00003
  15    C  1  dz2    Ryd( 3d)     0.00206       2.26200    -0.00178

  16    H  2  s      Val( 1s)     0.82954       0.16899    -0.05269
  17    H  2  s      Ryd( 2s)     0.00020       0.79375    -0.00001

  18    H  3  s      Val( 1s)     0.82954       0.16899    -0.05269
  19    H  3  s      Ryd( 2s)     0.00020       0.79375    -0.00001

  20    H  4  s      Val( 1s)     0.82954       0.16899    -0.05269
  21    H  4  s      Ryd( 2s)     0.00020       0.79375    -0.00001


 Summary of Natural Population Analysis:

                                     Natural Population                 Natural
             Natural    ---------------------------------------------    Spin
  Atom No    Charge        Core      Valence    Rydberg      Total      Density
 -------------------------------------------------------------------------------
    C  1   -0.51079      1.99968     4.49686    0.01425     6.51079     1.15809
    H  2    0.17026      0.00000     0.82954    0.00020     0.82974    -0.05270
    H  3    0.17026      0.00000     0.82954    0.00020     0.82974    -0.05270
    H  4    0.17026      0.00000     0.82954    0.00020     0.82974    -0.05270
 ===============================================================================
 * Total *  0.00000      1.99968     6.98548    0.01485     9.00000     1.00000

                                 Natural Population
 ---------------------------------------------------------
   Core                       1.99968 ( 99.9839% of    2)
   Valence                    6.98548 ( 99.7925% of    7)
   Natural Minimal Basis      8.98515 ( 99.8351% of    9)
   Natural Rydberg Basis      0.01485 (  0.1649% of    9)
 ---------------------------------------------------------

    Atom No         Natural Electron Configuration
 ----------------------------------------------------------------------------
      C  1      [core]2s( 1.19)2p( 3.31)3p( 0.01)3d( 0.01)
      H  2            1s( 0.83)
      H  3            1s( 0.83)
      H  4            1s( 0.83)


 ***************************************************
 *******         Alpha spin orbitals         *******
 ***************************************************


 NATURAL POPULATIONS:  Natural atomic orbital occupancies

  NAO Atom No lang   Type(AO)    Occupancy      Energy
 -------------------------------------------------------
   1    C  1  s      Cor( 1s)     0.99983     -11.11584
   2    C  1  s      Val( 2s)     0.63293      -0.42977
   3    C  1  s      Ryd( 3s)     0.00009       1.02836
   4    C  1  s      Ryd( 4s)     0.00000       4.47789
   5    C  1  px     Val( 2p)     0.59898      -0.04075
   6    C  1  px     Ryd( 3p)     0.00048       0.77776
   7    C  1  py     Val( 2p)     0.59898      -0.04075
   8    C  1  py     Ryd( 3p)     0.00048       0.77776
   9    C  1  pz     Val( 2p)     0.99513      -0.37782
  10    C  1  pz     Ryd( 3p)     0.00487       0.74084
  11    C  1  dxy    Ryd( 3d)     0.00127       2.43754
  12    C  1  dxz    Ryd( 3d)     0.00000       1.92404
  13    C  1  dyz    Ryd( 3d)     0.00000       1.92404
  14    C  1  dx2y2  Ryd( 3d)     0.00127       2.43754
  15    C  1  dz2    Ryd( 3d)     0.00014       2.26200

  16    H  2  s      Val( 1s)     0.38842       0.16899
  17    H  2  s      Ryd( 2s)     0.00010       0.79375

  18    H  3  s      Val( 1s)     0.38842       0.16899
  19    H  3  s      Ryd( 2s)     0.00010       0.79375

  20    H  4  s      Val( 1s)     0.38842       0.16899
  21    H  4  s      Ryd( 2s)     0.00010       0.79375


 Summary of Natural Population Analysis:

                                     Natural Population
             Natural    ---------------------------------------------
  Atom No    Charge        Core      Valence    Rydberg      Total
 --------------------------------------------------------------------
    C  1   -0.83444      0.99983     2.82601    0.00860     3.83444
    H  2    0.11148      0.00000     0.38842    0.00010     0.38852
    H  3    0.11148      0.00000     0.38842    0.00010     0.38852
    H  4    0.11148      0.00000     0.38842    0.00010     0.38852
 ====================================================================
 * Total * -0.50000      0.99983     3.99129    0.00888     5.00000

                                 Natural Population
 ---------------------------------------------------------
   Core                       0.99983 ( 99.9831% of    1)
   Valence                    3.99129 ( 99.7821% of    4)
   Natural Minimal Basis      4.99112 ( 99.8223% of    5)
   Natural Rydberg Basis      0.00888 (  0.1777% of    5)
 ---------------------------------------------------------

    Atom No         Natural Electron Configuration
 ----------------------------------------------------------------------------
      C  1      [core]2s( 0.63)2p( 2.19)3p( 0.01)
      H  2            1s( 0.39)
      H  3            1s( 0.39)
      H  4            1s( 0.39)


 NATURAL BOND ORBITAL ANALYSIS, alpha spin orbitals:

                            Occupancies       Lewis Structure    Low   High
         Max    Occ     -------------------  -----------------   occ   occ
  Cycle  Ctr   Thresh    Lewis   non-Lewis     CR  BD  nC  LP    (L)   (NL)
 ============================================================================
    1     2     0.95     4.99902   0.00098      1   3   0   1     0      0
 ----------------------------------------------------------------------------

 Structure accepted: No low occupancy Lewis orbitals

 -------------------------------------------------------
   Core                      0.99983 ( 99.983% of   1)
   Valence Lewis             3.99918 ( 99.980% of   4)
  ==================      =============================
   Total Lewis               4.99902 ( 99.980% of   5)
  -----------------------------------------------------
   Valence non-Lewis         0.00076 (  0.015% of   5)
   Rydberg non-Lewis         0.00023 (  0.005% of   5)
  ==================      =============================
   Total non-Lewis           0.00098 (  0.020% of   5)
 -------------------------------------------------------


     (Occupancy)   Bond orbital / Coefficients / Hybrids
 ------------------ Lewis ------------------------------------------------------
   1. (0.99983) CR ( 1) C  1            s(100.00%)
                                         1.0000  0.0000  0.0000  0.0000  0.0000
                                         0.0000  0.0000  0.0000  0.0000  0.0000
                                         0.0000  0.0000  0.0000  0.0000  0.0000
   2. (1.00000) LP ( 1) C  1            s(  0.00%)p 1.00(100.00%)
                                         0.0000  0.0000  0.0000  0.0000  0.0000
                                         0.0000  0.0000  0.0000  0.9976 -0.0698
                                         0.0000  0.0000  0.0000  0.0000  0.0000
   3. (0.99973) BD ( 1) C  1- H  2
               ( 61.16%)   0.7821* C  1 s( 33.33%)p 2.00( 66.53%)d 0.00(  0.15%)
                                         0.0000  0.5772  0.0070  0.0000  0.8153
                                         0.0230  0.0000  0.0000  0.0000  0.0000
                                         0.0000  0.0000  0.0000  0.0375 -0.0086
               ( 38.84%)   0.6232* H  2 s(100.00%)
                                         1.0000  0.0077
   4. (0.99973) BD ( 1) C  1- H  3
               ( 61.16%)   0.7821* C  1 s( 33.33%)p 2.00( 66.53%)d 0.00(  0.15%)
                                         0.0000  0.5772  0.0070  0.0000 -0.4077
                                        -0.0115  0.7061  0.0199  0.0000  0.0000
                                        -0.0325  0.0000  0.0000 -0.0187 -0.0086
               ( 38.84%)   0.6232* H  3 s(100.00%)
                                         1.0000  0.0077
   5. (0.99973) BD ( 1) C  1- H  4
               ( 61.16%)   0.7821* C  1 s( 33.33%)p 2.00( 66.53%)d 0.00(  0.15%)
                                         0.0000  0.5772  0.0070  0.0000 -0.4077
                                        -0.0115 -0.7061 -0.0199  0.0000  0.0000
                                         0.0325  0.0000  0.0000 -0.0187 -0.0086
               ( 38.84%)   0.6232* H  4 s(100.00%)
                                         1.0000  0.0077
 ---------------- non-Lewis ----------------------------------------------------
   6. (0.00025) BD*( 1) C  1- H  2
               ( 38.84%)   0.6232* C  1 s( 33.33%)p 2.00( 66.53%)d 0.00(  0.15%)
                                         0.0000 -0.5772 -0.0070  0.0000 -0.8153
                                        -0.0230  0.0000  0.0000  0.0000  0.0000
                                         0.0000  0.0000  0.0000 -0.0375  0.0086
               ( 61.16%)  -0.7821* H  2 s(100.00%)
                                        -1.0000 -0.0077
   7. (0.00025) BD*( 1) C  1- H  3
               ( 38.84%)   0.6232* C  1 s( 33.33%)p 2.00( 66.53%)d 0.00(  0.15%)
                                         0.0000 -0.5772 -0.0070  0.0000  0.4077
                                         0.0115 -0.7061 -0.0199  0.0000  0.0000
                                         0.0325  0.0000  0.0000  0.0187  0.0086
               ( 61.16%)  -0.7821* H  3 s(100.00%)
                                        -1.0000 -0.0077
   8. (0.00025) BD*( 1) C  1- H  4
               ( 38.84%)   0.6232* C  1 s( 33.33%)p 2.00( 66.53%)d 0.00(  0.15%)
                                         0.0000 -0.5772 -0.0070  0.0000  0.4077
                                         0.0115  0.7061  0.0199  0.0000  0.0000
                                        -0.0325  0.0000  0.0000  0.0187  0.0086
               ( 61.16%)  -0.7821* H  4 s(100.00%)
                                        -1.0000 -0.0077
   9. (0.00000) RY ( 1) C  1            s( 37.19%)p 0.00(  0.00%)d 1.69( 62.81%)
  10. (0.00000) RY ( 2) C  1            s( 62.84%)p 0.00(  0.00%)d 0.59( 37.16%)
  11. (0.00000) RY ( 3) C  1            s(100.00%)p 0.00(  0.00%)d 0.00(  0.00%)
  12. (0.00000) RY ( 4) C  1            s(  0.00%)p 1.00(100.00%)d 0.00(  0.00%)
  13. (0.00000) RY ( 5) C  1            s(  0.00%)p 1.00(100.00%)d 0.00(  0.00%)
  14. (0.00000) RY ( 6) C  1            s(  0.00%)p 1.00(100.00%)
  15. (0.00000) RY ( 7) C  1            s(  0.00%)p 1.00(  0.21%)d99.99( 99.79%)
  16. (0.00000) RY ( 8) C  1            s(  0.00%)p 0.00(  0.00%)d 1.00(100.00%)
  17. (0.00000) RY ( 9) C  1            s(  0.00%)p 0.00(  0.00%)d 1.00(100.00%)
  18. (0.00000) RY (10) C  1            s(  0.00%)p 1.00(  0.21%)d99.99( 99.79%)
  19. (0.00007) RY ( 1) H  2            s(100.00%)
  20. (0.00007) RY ( 1) H  3            s(100.00%)
  21. (0.00007) RY ( 1) H  4            s(100.00%)


 NHO DIRECTIONALITY AND BOND BENDING (deviations from line of nuclear centers at
                                      the radius of maximum hybrid amplitude)

         [Thresholds for printing:  angular deviation  >  1.0 degree]
                                    p- or d-character  > 25.0%
                                    orbital occupancy  >  0.10e

                        Line of Centers        Hybrid 1             Hybrid 2
                        ---------------  -------------------  ------------------
           NBO            Theta   Phi    Theta   Phi    Dev   Theta   Phi    Dev
 ===============================================================================
   2. LP ( 1) C  1          --     --      0.0    0.0   --      --     --    --


 SECOND ORDER PERTURBATION THEORY ANALYSIS OF FOCK MATRIX IN NBO BASIS

     Threshold for printing:   0.25 kcal/mol
                                                          E(2) E(NL)-E(L) F(L,NL)
      Donor (L) NBO              Acceptor (NL) NBO      kcal/mol   a.u.    a.u.
 ===============================================================================

 within unit  1
    1. CR ( 1) C  1            19. RY ( 1) H  2            0.33   11.90   0.079
    1. CR ( 1) C  1            20. RY ( 1) H  3            0.33   11.90   0.079
    1. CR ( 1) C  1            21. RY ( 1) H  4            0.33   11.90   0.079


 NATURAL BOND ORBITALS (Summary):

                                                     Principal Delocalizations
           NBO                 Occupancy    Energy   (geminal,vicinal,remote)
 ===============================================================================
 Molecular unit  1  (CH3)
 ------ Lewis --------------------------------------
    1. CR ( 1) C  1             0.99983   -11.11584  19(v),20(v),21(v)
    2. LP ( 1) C  1             1.00000    -0.38332
    3. BD ( 1) C  1- H  2       0.99973    -0.73820
    4. BD ( 1) C  1- H  3       0.99973    -0.73820
    5. BD ( 1) C  1- H  4       0.99973    -0.73820
 ------ non-Lewis ----------------------------------
    6. BD*( 1) C  1- H  2       0.00025     0.75214
    7. BD*( 1) C  1- H  3       0.00025     0.75214
    8. BD*( 1) C  1- H  4       0.00025     0.75214
    9. RY ( 1) C  1             0.00000     2.03483
   10. RY ( 2) C  1             0.00000     1.49170
   11. RY ( 3) C  1             0.00000     4.24155
   12. RY ( 4) C  1             0.00000     0.77253
   13. RY ( 5) C  1             0.00000     0.77253
   14. RY ( 6) C  1             0.00000     0.74635
   15. RY ( 7) C  1             0.00000     2.42783
   16. RY ( 8) C  1             0.00000     1.92404
   17. RY ( 9) C  1             0.00000     1.92404
   18. RY (10) C  1             0.00000     2.42783
   19. RY ( 1) H  2             0.00007     0.78839
   20. RY ( 1) H  3             0.00007     0.78839
   21. RY ( 1) H  4             0.00007     0.78839
          -------------------------------
                 Total Lewis    4.99902  ( 99.9803%)
           Valence non-Lewis    0.00076  (  0.0151%)
           Rydberg non-Lewis    0.00023  (  0.0046%)
          -------------------------------
               Total unit  1    5.00000  (100.0000%)
              Charge unit  1   -0.50000


 ***************************************************
 *******         Beta  spin orbitals         *******
 ***************************************************


 NATURAL POPULATIONS:  Natural atomic orbital occupancies

  NAO Atom No lang   Type(AO)    Occupancy      Energy
 -------------------------------------------------------
   1    C  1  s      Cor( 1s)     0.99985     -11.09569
   2    C  1  s      Val( 2s)     0.55581      -0.23750
   3    C  1  s      Ryd( 3s)     0.00011       1.06906
   4    C  1  s      Ryd( 4s)     0.00000       4.51262
   5    C  1  px     Val( 2p)     0.55752       0.02563
   6    C  1  px     Ryd( 3p)     0.00058       0.79243
   7    C  1  py     Val( 2p)     0.55752       0.02563
   8    C  1  py     Ryd( 3p)     0.00058       0.79243
   9    C  1  pz     Val( 2p)     0.00000       0.21138
  10    C  1  pz     Ryd( 3p)     0.00000       0.84092
  11    C  1  dxy    Ryd( 3d)     0.00124       2.45716
  12    C  1  dxz    Ryd( 3d)     0.00000       2.02308
  13    C  1  dyz    Ryd( 3d)     0.00000       2.02308
  14    C  1  dx2y2  Ryd( 3d)     0.00124       2.45716
  15    C  1  dz2    Ryd( 3d)     0.00192       2.36580

  16    H  2  s      Val( 1s)     0.44111       0.12993
  17    H  2  s      Ryd( 2s)     0.00010       0.78953

  18    H  3  s      Val( 1s)     0.44111       0.12993
  19    H  3  s      Ryd( 2s)     0.00010       0.78953

  20    H  4  s      Val( 1s)     0.44111       0.12993
  21    H  4  s      Ryd( 2s)     0.00010       0.78953


 Summary of Natural Population Analysis:

                                     Natural Population
             Natural    ---------------------------------------------
  Atom No    Charge        Core      Valence    Rydberg      Total
 --------------------------------------------------------------------
    C  1    0.32365      0.99985     1.67085    0.00565     2.67635
    H  2    0.05878      0.00000     0.44111    0.00010     0.44122
    H  3    0.05878      0.00000     0.44111    0.00010     0.44122
    H  4    0.05878      0.00000     0.44111    0.00010     0.44122
 ====================================================================
 * Total *  0.50000      0.99985     2.99419    0.00596     4.00000

                                 Natural Population
 ---------------------------------------------------------
   Core                       0.99985 ( 99.9846% of    1)
   Valence                    2.99419 ( 99.8064% of    3)
   Natural Minimal Basis      3.99404 ( 99.8510% of    4)
   Natural Rydberg Basis      0.00596 (  0.1490% of    4)
 ---------------------------------------------------------

    Atom No         Natural Electron Configuration
 ----------------------------------------------------------------------------
      C  1      [core]2s( 0.56)2p( 1.12)
      H  2            1s( 0.44)
      H  3            1s( 0.44)
      H  4            1s( 0.44)


 NATURAL BOND ORBITAL ANALYSIS, beta spin orbitals:

                            Occupancies       Lewis Structure    Low   High
         Max    Occ     -------------------  -----------------   occ   occ
  Cycle  Ctr   Thresh    Lewis   non-Lewis     CR  BD  nC  LP    (L)   (NL)
 ============================================================================
    1     2     0.95     3.99973   0.00027      1   3   0   0     0      0
 ----------------------------------------------------------------------------

 Structure accepted: No low occupancy Lewis orbitals

 -------------------------------------------------------
   Core                      0.99985 ( 99.985% of   1)
   Valence Lewis             2.99988 ( 99.996% of   3)
  ==================      =============================
   Total Lewis               3.99973 ( 99.993% of   4)
  -----------------------------------------------------
   Valence non-Lewis         0.00001 (  0.000% of   4)
   Rydberg non-Lewis         0.00027 (  0.007% of   4)
  ==================      =============================
   Total non-Lewis           0.00027 (  0.007% of   4)
 -------------------------------------------------------


     (Occupancy)   Bond orbital / Coefficients / Hybrids
 ------------------ Lewis ------------------------------------------------------
   1. (0.99985) CR ( 1) C  1            s(100.00%)
                                         1.0000  0.0000  0.0000  0.0000  0.0000
                                         0.0000  0.0000  0.0000  0.0000  0.0000
                                         0.0000  0.0000  0.0000  0.0000  0.0000
   2. (0.99996) BD ( 1) C  1- H  2
               ( 55.89%)   0.7476* C  1 s( 33.22%)p 2.00( 66.52%)d 0.01(  0.26%)
                                         0.0000  0.5763 -0.0080  0.0000  0.8152
                                         0.0262  0.0000  0.0000  0.0000  0.0000
                                         0.0000  0.0000  0.0000  0.0384 -0.0338
               ( 44.11%)   0.6642* H  2 s(100.00%)
                                         1.0000 -0.0066
   3. (0.99996) BD ( 1) C  1- H  3
               ( 55.89%)   0.7476* C  1 s( 33.22%)p 2.00( 66.52%)d 0.01(  0.26%)
                                         0.0000  0.5763 -0.0080  0.0000 -0.4076
                                        -0.0131  0.7060  0.0227  0.0000  0.0000
                                        -0.0332  0.0000  0.0000 -0.0192 -0.0338
               ( 44.11%)   0.6642* H  3 s(100.00%)
                                         1.0000 -0.0066
   4. (0.99996) BD ( 1) C  1- H  4
               ( 55.89%)   0.7476* C  1 s( 33.22%)p 2.00( 66.52%)d 0.01(  0.26%)
                                         0.0000  0.5763 -0.0080  0.0000 -0.4076
                                        -0.0131 -0.7060 -0.0227  0.0000  0.0000
                                         0.0332  0.0000  0.0000 -0.0192 -0.0338
               ( 44.11%)   0.6642* H  4 s(100.00%)
                                         1.0000 -0.0066
 ---------------- non-Lewis ----------------------------------------------------
   5. (0.00000) LV ( 1) C  1            s(  0.00%)p 1.00(100.00%)
   6. (0.00000) BD*( 1) C  1- H  2
               ( 44.11%)   0.6642* C  1 s( 33.22%)p 2.00( 66.52%)d 0.01(  0.26%)
               ( 55.89%)  -0.7476* H  2 s(100.00%)
   7. (0.00000) BD*( 1) C  1- H  3
               ( 44.11%)   0.6642* C  1 s( 33.22%)p 2.00( 66.52%)d 0.01(  0.26%)
               ( 55.89%)  -0.7476* H  3 s(100.00%)
   8. (0.00000) BD*( 1) C  1- H  4
               ( 44.11%)   0.6642* C  1 s( 33.22%)p 2.00( 66.52%)d 0.01(  0.26%)
               ( 55.89%)  -0.7476* H  4 s(100.00%)
   9. (0.00001) RY ( 1) C  1            s( 11.49%)p 0.00(  0.00%)d 7.70( 88.51%)
  10. (0.00000) RY ( 2) C  1            s(100.00%)p 0.00(  0.00%)d 0.00(  0.00%)
  11. (0.00000) RY ( 3) C  1            s(  0.00%)p 1.00(100.00%)d 0.00(  0.00%)
  12. (0.00000) RY ( 4) C  1            s(  0.00%)p 1.00(100.00%)d 0.00(  0.00%)
  13. (0.00000) RY ( 5) C  1            s(  0.00%)p 1.00(100.00%)
  14. (0.00000) RY ( 6) C  1            s(  0.00%)p 1.00(  0.22%)d99.99( 99.78%)
  15. (0.00000) RY ( 7) C  1            s(  0.00%)p 0.00(  0.00%)d 1.00(100.00%)
  16. (0.00000) RY ( 8) C  1            s(  0.00%)p 0.00(  0.00%)d 1.00(100.00%)
  17. (0.00000) RY ( 9) C  1            s(  0.00%)p 1.00(  0.22%)d99.99( 99.78%)
  18. (0.00000) RY (10) C  1            s( 88.85%)p 0.00(  0.00%)d 0.13( 11.15%)
  19. (0.00008) RY ( 1) H  2            s(100.00%)
  20. (0.00008) RY ( 1) H  3            s(100.00%)
  21. (0.00008) RY ( 1) H  4            s(100.00%)


 NHO DIRECTIONALITY AND BOND BENDING (deviations from line of nuclear centers at
                                      the radius of maximum hybrid amplitude)

         [Thresholds for printing:  angular deviation  >  1.0 degree]
                                    p- or d-character  > 25.0%
                                    orbital occupancy  >  0.10e

                        Line of Centers        Hybrid 1             Hybrid 2
                        ---------------  -------------------  ------------------
           NBO            Theta   Phi    Theta   Phi    Dev   Theta   Phi    Dev
 ===============================================================================
    None exceeding thresholds


 SECOND ORDER PERTURBATION THEORY ANALYSIS OF FOCK MATRIX IN NBO BASIS

     Threshold for printing:   0.25 kcal/mol
                                                          E(2) E(NL)-E(L) F(L,NL)
      Donor (L) NBO              Acceptor (NL) NBO      kcal/mol   a.u.    a.u.
 ===============================================================================

 within unit  1
    1. CR ( 1) C  1            19. RY ( 1) H  2            0.29   11.89   0.074
    1. CR ( 1) C  1            20. RY ( 1) H  3            0.29   11.89   0.074
    1. CR ( 1) C  1            21. RY ( 1) H  4            0.29   11.89   0.074


 NATURAL BOND ORBITALS (Summary):

                                                     Principal Delocalizations
           NBO                 Occupancy    Energy   (geminal,vicinal,remote)
 ===============================================================================
 Molecular unit  1  (CH3)
 ------ Lewis --------------------------------------
    1. CR ( 1) C  1             0.99985   -11.09569  19(v),20(v),21(v)
    2. BD ( 1) C  1- H  2       0.99996    -0.69654
    3. BD ( 1) C  1- H  3       0.99996    -0.69654
    4. BD ( 1) C  1- H  4       0.99996    -0.69654
 ------ non-Lewis ----------------------------------
    5. LV ( 1) C  1             0.00000     0.21138
    6. BD*( 1) C  1- H  2       0.00000     0.77305
    7. BD*( 1) C  1- H  3       0.00000     0.77305
    8. BD*( 1) C  1- H  4       0.00000     0.77305
    9. RY ( 1) C  1             0.00001     2.15424
   10. RY ( 2) C  1             0.00000     4.29060
   11. RY ( 3) C  1             0.00000     0.78576
   12. RY ( 4) C  1             0.00000     0.78576
   13. RY ( 5) C  1             0.00000     0.84092
   14. RY ( 6) C  1             0.00000     2.44689
   15. RY ( 7) C  1             0.00000     2.02308
   16. RY ( 8) C  1             0.00000     2.02308
   17. RY ( 9) C  1             0.00000     2.44689
   18. RY (10) C  1             0.00000     1.49749
   19. RY ( 1) H  2             0.00008     0.79388
   20. RY ( 1) H  3             0.00008     0.79388
   21. RY ( 1) H  4             0.00008     0.79388
          -------------------------------
                 Total Lewis    3.99973  ( 99.9931%)
           Valence non-Lewis    0.00001  (  0.0002%)
           Rydberg non-Lewis    0.00027  (  0.0067%)
          -------------------------------
               Total unit  1    4.00000  (100.0000%)
              Charge unit  1    0.50000

 $CHOOSE
  ALPHA
   LONE 1 1 END
   BOND S 1 2 S 1 3 S 1 4 END
  END
  BETA
   BOND S 1 2 S 1 3 S 1 4 END
  END
 $END

 Maximum scratch memory used by NBO was 93090 words
Archival summary:
1\1\electron.local\SP\HF\6-31G*\121(2)\ThuJul3113:22:192014ThuJul3113:22:192014\0\\#,HF,6-31G*,\\0,2\C\H,1,1.0736\H,1,1.0736,2,120\H,1,1.0736,2,120,3,-180,0\\HF=-39.5589878\\@

 Total job time:  0.35s(wall), 0.24s(cpu) 
 Thu Jul 31 13:22:19 2014

        *************************************************************
        *                                                           *
        *  Thank you very much for using Q-Chem.  Have a nice day.  *
        *                                                           *
        *************************************************************


