
Running Job 1 of 1 ch3nh2.inp
qchem ch3nh2.inp_67693.0 /Users/ericg/scr/qchem67693/ 1
                  Welcome to Q-Chem
     A Quantum Leap Into The Future Of Chemistry


 Q-Chem 4.2, Q-Chem, Inc., Pleasanton, CA (2014).

 Y. Shao,  Z. Gan,  E. Epifanovsky,  A. T. B. Gilbert,  M. Wormit,  
 J. Kussmann,  A. W. Lange,  A. Behn,  J. Deng,  X. Feng,  D. Ghosh,  
 M. Goldey,  P. R. Horn,  L. D. Jacobson,  I. Kaliman,  R. Z. Khaliullin,  
 T. Kus,  A. Landau,  J. Liu,  E. I. Proynov,  Y. M. Rhee,  R. M. Richard,  
 M. A. Rohrdanz,  R. P. Steele,  E. J. Sundstrom,  H. L. Woodcock III,  
 P. M. Zimmerman,  D. Zuev,  B. Albrecht,  E. Alguire,  B. Austin,  
 G. J. O. Beran,  Y. A. Bernard,  E. Berquist,  K. Brandhorst,  
 K. B. Bravaya,  S. T. Brown,  D. Casanova,  C.-M. Chang,  Y. Chen,  
 S. H. Chien,  K. D. Closser,  D. L. Crittenden,  M. Diedenhofen,  
 R. A. DiStasio Jr.,  H. Do,  A. D. Dutoi,  R. G. Edgar,  S. Fatehi,  
 L. Fusti-Molnar,  A. Ghysels,  A. Golubeva-Zadorozhnaya,  J. Gomes,  
 M. W. D. Hanson-Heine,  P. H. P. Harbach,  A. W. Hauser,  E. G. Hohenstein,  
 Z. C. Holden,  T.-C. Jagau,  H. Ji,  B. Kaduk,  K. Khistyaev,  Jaehoon Kim,  
 Jihan Kim,  R. A. King,  P. Klunzinger,  D. Kosenkov,  T. Kowalczyk,  
 C. M. Krauter,  K. U. Lao,  A. Laurent,  K. V. Lawler,  S. V. Levchenko,  
 C. Y. Lin,  F. Liu,  E. Livshits,  R. C. Lochan,  A. Luenser,  P. Manohar,  
 S. F. Manzer,  S.-P. Mao,  N. Mardirossian,  A. V. Marenich,  S. A. Maurer,  
 N. J. Mayhall,  C. M. Oana,  R. Olivares-Amaya,  D. P. O'Neill,  
 J. A. Parkhill,  T. M. Perrine,  R. Peverati,  P. A. Pieniazek,  A. Prociuk,  
 D. R. Rehn,  E. Rosta,  N. J. Russ,  N. Sergueev,  S. M. Sharada,  
 S. Sharma,  D. W. Small,  A. Sodt,  T. Stein,  D. Stuck,  Y.-C. Su,  
 A. J. W. Thom,  T. Tsuchimochi,  L. Vogt,  O. Vydrov,  T. Wang,  
 M. A. Watson,  J. Wenzel,  A. White,  C. F. Williams,  V. Vanovschi,  
 S. Yeganeh,  S. R. Yost,  Z.-Q. You,  I. Y. Zhang,  X. Zhang,  Y. Zhao,  
 B. R. Brooks,  G. K. L. Chan,  D. M. Chipman,  C. J. Cramer,  
 W. A. Goddard III,  M. S. Gordon,  W. J. Hehre,  A. Klamt,  
 H. F. Schaefer III,  M. W. Schmidt,  C. D. Sherrill,  D. G. Truhlar,  
 A. Warshel,  X. Xu,  A. Aspuru-Guzik,  R. Baer,  A. T. Bell,  N. A. Besley,  
 J.-D. Chai,  A. Dreuw,  B. D. Dunietz,  T. R. Furlani,  S. R. Gwaltney,  
 C.-P. Hsu,  Y. Jung,  J. Kong,  D. S. Lambrecht,  W. Liang,  C. Ochsenfeld,  
 V. A. Rassolov,  L. V. Slipchenko,  J. E. Subotnik,  T. Van Voorhis,  
 J. M. Herbert,  A. I. Krylov,  P. M. W. Gill,  M. Head-Gordon

 Contributors to earlier versions of Q-Chem not listed above: 
 R. D. Adamson,  J. Baker,  E. F. C. Byrd,  A. K. Chakraborty,  C.-L. Cheng,  
 H. Dachsel,  R. J. Doerksen,  G. Hawkins,  A. Heyden,  S. Hirata,  
 G. Kedziora,  F. J. Keil,  C. Kelley,  P. P. Korambath,  W. Kurlancheek,  
 A. M. Lee,  M. S. Lee,  D. Liotard,  I. Lotan,  P. E. Maslen,  N. Nair,  
 D. Neuhauser,  R. Olson,  B. Peters,  J. Ritchie,  N. E. Schultz,  
 N. Shenvi,  A. C. Simmonett,  K. S. Thanthiriwatte,  Q. Wu,  W. Zhang

 Q-Chem 4.2.0.0  for Mac (Intel) OS X

 Parts of Q-Chem use Armadillo 4.100.2 (Dirt Cruiser).
 http://arma.sourceforge.net/

 Q-Chem begins on Thu Jul 31 13:22:26 2014  

Host: electron.local
0

     Scratch files written to /Users/ericg/scr/qchem67693//
 May1314 814_zgan 0   
Processing $rem in /opt/qchem/config/preferences.
 MEM_TOTAL  2000 
Here CATS
Finally everything over in PARseQInput

--------------------------------------------------------------
User input:
--------------------------------------------------------------
$molecule
0 1
C
N  1  1.47
H  1  1.09  2  109.4712
H  1  1.09  2  109.4712  3  120. 0
H  1  1.09  2  109.4712  3  240. 0
H  2  1.01  1  109.4712  3   60. 0
H  2  1.01  1  109.4712  3  300. 0
$end

$rem
basis = 3-21g
method = hf
nbo = true
run_nbo6 = true
$end

$nbo
$end


--------------------------------------------------------------
 ----------------------------------------------------------------
             Standard Nuclear Orientation (Angstroms)
    I     Atom           X                Y                Z
 ----------------------------------------------------------------
    1      C      -0.7136726053     0.0142525065     0.0000000000
    2      N       0.7498173126    -0.1239403303     0.0000000000
    3      H      -0.9787873015     1.0715198321     0.0000000000
    4      H      -1.1237011027    -0.4631464493    -0.8899813865
    5      H      -1.1237011027    -0.4631464493     0.8899813865
    6      H       1.1297519753     0.3184201700     0.8246616517
    7      H       1.1297519753     0.3184201700    -0.8246616517
 ----------------------------------------------------------------
 Molecular Point Group                 Cs    NOp =  2
 Largest Abelian Subgroup              Cs    NOp =  2
 Nuclear Repulsion Energy =    42.0501658169 hartrees
 There are        9 alpha and        9 beta electrons
 Requested basis set is 3-21G
 There are 16 shells and 28 basis functions

Total QAlloc Memory Limit   2000 MB
Mega-Array Size        61 MB
MEM_STATIC part        62 MB

                       Distance Matrix (Angstroms)
             C (  1)   N (  2)   H (  3)   H (  4)   H (  5)   H (  6)
   N (  2)  1.470000
   H (  3)  1.090000  2.101713
   H (  4)  1.090000  2.101713  1.779963
   H (  5)  1.090000  2.101713  1.779963  1.779963
   H (  6)  2.042253  1.010000  2.386035  2.937499  2.386035
   H (  7)  2.042253  1.010000  2.386035  2.386035  2.937499  1.649323

 
 A cutoff of  1.0D-08 yielded    135 shell pairs
 There are       429 function pairs
 Smallest overlap matrix eigenvalue = 2.56E-02

  Scale SEOQF with 1.000000e+00/1.000000e+00/1.000000e+00

 Standard Electronic Orientation quadrupole field applied
 Nucleus-field energy     =     0.0000000028 hartrees
 Guess from superposition of atomic densities
 Warning:  Energy on first SCF cycle will be non-variational
 A restricted Hartree-Fock SCF calculation will be
 performed using Pulay DIIS extrapolation
 SCF converges when DIIS error is below 1.0E-05
 ---------------------------------------
  Cycle       Energy         DIIS Error
 ---------------------------------------
    1     -95.0818859046      1.75E-01
    2     -94.6587618174      1.37E-02
    3     -94.6773654826      4.71E-03
    4     -94.6792064556      1.41E-03
    5     -94.6794283180      2.08E-04
    6     -94.6794437125      5.32E-05
    7     -94.6794449034      1.23E-05
    8     -94.6794449416      3.31E-06 Convergence criterion met
 ---------------------------------------
 SCF time:  CPU 0.08 s  wall 0.09 s
 SCF   energy in the final basis set = -94.6794449416
 Total energy in the final basis set = -94.6794449416
 Analysis of SCF Wavefunction
 
 --------------------------------------------------------------
             Orbital Energies (a.u.) and Symmetries
 --------------------------------------------------------------
 
 Alpha MOs, Restricted
 -- Occupied --                  
-15.446 -11.183  -1.164  -0.892  -0.659  -0.593  -0.549  -0.517
  1 A'    2 A'    3 A'    4 A'    1 A"    5 A'    6 A'    2 A"                 
 -0.369
  7 A'                                                                         
 -- Virtual --                   
  0.266   0.329   0.336   0.357   0.382   0.450   0.948   0.978
  8 A'    9 A'    3 A"   10 A'    4 A"   11 A'    5 A"   12 A'                 
  0.987   1.259   1.265   1.311   1.341   1.381   1.511   1.642
 13 A'    6 A"   14 A'   15 A'   16 A'    7 A"   17 A'    8 A"                 
  1.665   1.967   2.840
 18 A'   19 A'   20 A'                                                         
 
 Beta MOs, Restricted
 -- Occupied --                  
-15.446 -11.183  -1.164  -0.892  -0.659  -0.593  -0.549  -0.517
  1 A'    2 A'    3 A'    4 A'    1 A"    5 A'    6 A'    2 A"                 
 -0.369
  7 A'                                                                         
 -- Virtual --                   
  0.266   0.329   0.336   0.357   0.382   0.450   0.948   0.978
  8 A'    9 A'    3 A"   10 A'    4 A"   11 A'    5 A"   12 A'                 
  0.987   1.259   1.265   1.311   1.341   1.381   1.511   1.642
 13 A'    6 A"   14 A'   15 A'   16 A'    7 A"   17 A'    8 A"                 
  1.665   1.967   2.840
 18 A'   19 A'   20 A'                                                         
 --------------------------------------------------------------
 
          Ground-State Mulliken Net Atomic Charges

     Atom                 Charge (a.u.)
  ----------------------------------------
      1 C                    -0.389080
      2 N                    -0.768371
      3 H                     0.167482
      4 H                     0.207777
      5 H                     0.207777
      6 H                     0.287208
      7 H                     0.287208
  ----------------------------------------
  Sum of atomic charges =     0.000000

 -----------------------------------------------------------------
                    Cartesian Multipole Moments
 -----------------------------------------------------------------
    Charge (ESU x 10^10)
                 0.0000
    Dipole Moment (Debye)
         X      -0.4477      Y       1.6743      Z       0.0000
       Tot       1.7331
    Quadrupole Moments (Debye-Ang)
        XX     -13.7944     XY       2.3104     YY     -15.2326
        XZ       0.0000     YZ       0.0000     ZZ     -12.3883
    Octopole Moments (Debye-Ang^2)
       XXX       2.9133    XXY       2.0119    XYY      -0.1976
       YYY       1.5777    XXZ       0.0000    XYZ       0.0000
       YYZ       0.0000    XZZ       1.9786    YZZ       0.2767
       ZZZ       0.0000
    Hexadecapole Moments (Debye-Ang^3)
      XXXX     -71.7673   XXXY       3.8248   XXYY     -16.2995
      XYYY       1.4272   YYYY     -21.9556   XXXZ       0.0000
      XXYZ       0.0000   XYYZ       0.0000   YYYZ       0.0000
      XXZZ     -13.3763   XYZZ       1.8852   YYZZ      -7.2759
      XZZZ       0.0000   YZZZ       0.0000   ZZZZ     -21.7104
 -----------------------------------------------------------------

 Begin NBO analysis for the ground state 

 fchar_ptr            1 /
 fchar_ptr            2 U
 fchar_ptr            3 s
 fchar_ptr            4 e
 fchar_ptr            5 r
 fchar_ptr            6 s
 fchar_ptr            7 /
 fchar_ptr            8 e
 fchar_ptr            9 r
 fchar_ptr           10 i
 fchar_ptr           11 c
 fchar_ptr           12 g
 fchar_ptr           13 /
 fchar_ptr           14 n
 fchar_ptr           15 b
 fchar_ptr           16 o
 fchar_ptr           17 6
 fchar_ptr           18 /
 fchar_ptr           19 b
 fchar_ptr           20 i
 fchar_ptr           21 n
 fchar_ptr           22 /
 fchar_ptr           23 n
 fchar_ptr           24 b
 fchar_ptr           25 o
 fchar_ptr           26 6
 fchar_ptr           27 .
 fchar_ptr           28 i
 fchar_ptr           29 4
 fchar_ptr           30 .
 fchar_ptr           31 e
 fchar_ptr           32 x
 fchar_ptr           33 e
 fchar_ptr           34  
 i=           1 atno=           6 znuc=           6
 i=           2 atno=           7 znuc=           7
 i=           3 atno=           1 znuc=           1
 i=           4 atno=           1 znuc=           1
 i=           5 atno=           1 znuc=           1
 i=           6 atno=           1 znuc=           1
 i=           7 atno=           1 znuc=           1
 Carts
             1             2             3             4             5
    1   -1.34864577    1.41694936   -1.84963993   -2.12348733   -2.12348733
    2    0.02693333   -0.23421328    2.02487902   -0.87521994   -0.87521994
    3    0.00000000   -0.00000000    0.00000000   -1.68182108    1.68182108
             6             7
    1    2.13492182    2.13492182
    2    0.60172691    0.60172691
    3    1.55838467   -1.55838467
 Carts
             1             2             3             4             5
    1   -0.71367261    0.74981731   -0.97878730   -1.12370110   -1.12370110
    2    0.01425251   -0.12394033    1.07151983   -0.46314645   -0.46314645
    3    0.00000000   -0.00000000    0.00000000   -0.88998139    0.88998139
             6             7
    1    1.12975198    1.12975198
    2    0.31842017    0.31842017
    3    0.82466165   -0.82466165
 Sao
             1             2             3             4             5
    1    1.00000000    0.19144744    0.00000000    0.00000000    0.00000000
    2    0.19144744    1.00000000    0.00000000    0.00000000    0.00000000
    3    0.00000000    0.00000000    1.00000000    0.00000000    0.00000000
    4    0.00000000    0.00000000    0.00000000    1.00000000    0.00000000
    5    0.00000000    0.00000000    0.00000000    0.00000000    1.00000000
    6    0.18031400    0.76135741    0.00000000    0.00000000    0.00000000
    7    0.00000000    0.00000000    0.52895881    0.00000000    0.00000000
    8    0.00000000    0.00000000    0.00000000    0.52895881    0.00000000
    9    0.00000000    0.00000000    0.00000000    0.00000000    0.52895881
   10    0.00000000    0.00185636    0.00585527   -0.00055289   -0.00000000
   11    0.00038793    0.03919770    0.08082805   -0.00763234   -0.00000000
   12   -0.00134910   -0.06860378   -0.12690354    0.01392592    0.00000000
   13    0.00012739    0.00647804    0.01392592    0.01925975   -0.00000000
   14    0.00000000    0.00000000    0.00000000   -0.00000000    0.02057473
   15    0.02879169    0.18602936    0.19841674   -0.01873588   -0.00000000
   16   -0.08107835   -0.38922055   -0.29734205    0.04080729    0.00000000
   17    0.00765598    0.03675290    0.04080729    0.13096202   -0.00000000
   18    0.00000000    0.00000000    0.00000000   -0.00000000    0.13481532
   19    0.01893633    0.19455084   -0.07138527    0.28468174    0.00000000
   20    0.08082359    0.40129303   -0.05712669    0.22781908    0.00000000
   21    0.01893633    0.19455084   -0.11040503   -0.12854532   -0.23963802
   22    0.08082359    0.40129303   -0.08835260   -0.10286953   -0.19177244
   23    0.01893633    0.19455084   -0.11040503   -0.12854532    0.23963802
   24    0.08082359    0.40129303   -0.08835260   -0.10286953    0.19177244
   25    0.00000843    0.00290769    0.00655358    0.00108135    0.00293176
   26    0.01213999    0.08561429    0.08109684    0.01338109    0.03627892
   27    0.00000843    0.00290769    0.00655358    0.00108135   -0.00293176
   28    0.01213999    0.08561429    0.08109684    0.01338109   -0.03627892
             6             7             8             9            10
    1    0.18031400    0.00000000    0.00000000    0.00000000    0.00000000
    2    0.76135741    0.00000000    0.00000000    0.00000000    0.00185636
    3    0.00000000    0.52895881    0.00000000    0.00000000    0.00585527
    4    0.00000000    0.00000000    0.52895881    0.00000000   -0.00055289
    5    0.00000000    0.00000000    0.00000000    0.52895881   -0.00000000
    6    1.00000000    0.00000000    0.00000000    0.00000000    0.03231093
    7    0.00000000    1.00000000    0.00000000    0.00000000    0.07737375
    8    0.00000000    0.00000000    1.00000000    0.00000000   -0.00730616
    9    0.00000000    0.00000000    0.00000000    1.00000000   -0.00000000
   10    0.03231093    0.07737375   -0.00730616   -0.00000000    1.00000000
   11    0.17809855    0.36668957   -0.03462536   -0.00000000    0.19490740
   12   -0.12632284   -0.16247923    0.02508826    0.00000000    0.00000000
   13    0.01192828    0.02508826    0.10084146   -0.00000000    0.00000000
   14    0.00000000    0.00000000   -0.00000000    0.10321047    0.00000000
   15    0.39898603    0.57737108   -0.05451937   -0.00000000    0.18422540
   16   -0.48014689   -0.30252075    0.06560958    0.00000000    0.00000000
   17    0.04533879    0.06560958    0.38610257   -0.00000000    0.00000000
   18    0.00000000    0.00000000   -0.00000000    0.39229788    0.00000000
   19    0.33865485   -0.12243019    0.48824695    0.00000000    0.00000240
   20    0.66868345   -0.14330586    0.57149831    0.00000000    0.00796524
   21    0.33865485   -0.18935151   -0.22046325   -0.41099416    0.00000240
   22    0.66868345   -0.22163798   -0.25805460   -0.48107309    0.00796524
   23    0.33865485   -0.18935151   -0.22046325    0.41099416    0.00000240
   24    0.66868345   -0.22163798   -0.25805460    0.48107309    0.00796524
   25    0.06195117    0.15535795    0.02563428    0.06949986    0.02183174
   26    0.24397992    0.36357081    0.05998970    0.16264452    0.07025713
   27    0.06195117    0.15535795    0.02563428   -0.06949986    0.02183174
   28    0.24397992    0.36357081    0.05998970   -0.16264452    0.07025713
            11            12            13            14            15
    1    0.00038793   -0.00134910    0.00012739    0.00000000    0.02879169
    2    0.03919770   -0.06860378    0.00647804    0.00000000    0.18602936
    3    0.08082805   -0.12690354    0.01392592    0.00000000    0.19841674
    4   -0.00763234    0.01392592    0.01925975   -0.00000000   -0.01873588
    5   -0.00000000    0.00000000   -0.00000000    0.02057473   -0.00000000
    6    0.17809855   -0.12632284    0.01192828    0.00000000    0.39898603
    7    0.36668957   -0.16247923    0.02508826    0.00000000    0.57737108
    8   -0.03462536    0.02508826    0.10084146   -0.00000000   -0.05451937
    9   -0.00000000    0.00000000   -0.00000000    0.10321047   -0.00000000
   10    0.19490740    0.00000000    0.00000000    0.00000000    0.18422540
   11    1.00000000    0.00000000    0.00000000    0.00000000    0.75219207
   12    0.00000000    1.00000000    0.00000000    0.00000000    0.00000000
   13    0.00000000    0.00000000    1.00000000    0.00000000    0.00000000
   14    0.00000000    0.00000000    0.00000000    1.00000000    0.00000000
   15    0.75219207    0.00000000    0.00000000    0.00000000    1.00000000
   16    0.00000000    0.51600104    0.00000000    0.00000000    0.00000000
   17    0.00000000    0.00000000    0.51600104    0.00000000    0.00000000
   18    0.00000000    0.00000000    0.00000000    0.51600104    0.00000000
   19    0.00055549   -0.00114858    0.00079433    0.00000000    0.02715401
   20    0.05253586   -0.04063712    0.02810363    0.00000000    0.16696361
   21    0.00055549   -0.00124487   -0.00022539   -0.00059135    0.02715401
   22    0.05253586   -0.04404385   -0.00797427   -0.02092224    0.16696361
   23    0.00055549   -0.00124487   -0.00022539    0.00059135    0.02715401
   24    0.05253586   -0.04404385   -0.00797427    0.02092224    0.16696361
   25    0.17742456    0.09262704    0.10784629    0.20105028    0.35880081
   26    0.34764729    0.06132807    0.07140469    0.13311475    0.64369718
   27    0.17742456    0.09262704    0.10784629   -0.20105028    0.35880081
   28    0.34764729    0.06132807    0.07140469   -0.13311475    0.64369718
            16            17            18            19            20
    1   -0.08107835    0.00765598    0.00000000    0.01893633    0.08082359
    2   -0.38922055    0.03675290    0.00000000    0.19455084    0.40129303
    3   -0.29734205    0.04080729    0.00000000   -0.07138527   -0.05712669
    4    0.04080729    0.13096202   -0.00000000    0.28468174    0.22781908
    5    0.00000000   -0.00000000    0.13481532    0.00000000    0.00000000
    6   -0.48014689    0.04533879    0.00000000    0.33865485    0.66868345
    7   -0.30252075    0.06560958    0.00000000   -0.12243019   -0.14330586
    8    0.06560958    0.38610257   -0.00000000    0.48824695    0.57149831
    9    0.00000000   -0.00000000    0.39229788    0.00000000    0.00000000
   10    0.00000000    0.00000000    0.00000000    0.00000240    0.00796524
   11    0.00000000    0.00000000    0.00000000    0.00055549    0.05253586
   12    0.51600104    0.00000000    0.00000000   -0.00114858   -0.04063712
   13    0.00000000    0.51600104    0.00000000    0.00079433    0.02810363
   14    0.00000000    0.00000000    0.51600104    0.00000000    0.00000000
   15    0.00000000    0.00000000    0.00000000    0.02715401    0.16696361
   16    1.00000000    0.00000000    0.00000000   -0.07072974   -0.22800669
   17    0.00000000    1.00000000    0.00000000    0.04891494    0.15768378
   18    0.00000000    0.00000000    1.00000000    0.00000000    0.00000000
   19   -0.07072974    0.04891494    0.00000000    1.00000000    0.64589894
   20   -0.22800669    0.15768378    0.00000000    0.64589894    1.00000000
   21   -0.07665921   -0.01387938   -0.03641559    0.00776076    0.11687070
   22   -0.24712113   -0.04474202   -0.11739047    0.11687070    0.35475593
   23   -0.07665921   -0.01387938    0.03641559    0.00776076    0.11687070
   24   -0.24712113   -0.04474202    0.11739047    0.11687070    0.35475593
   25    0.20672317    0.24068919    0.44869998    0.00018750    0.03000073
   26    0.19320600    0.22495105    0.41936046    0.03000073    0.15532946
   27    0.20672317    0.24068919   -0.44869998    0.00018750    0.03000073
   28    0.19320600    0.22495105   -0.41936046    0.03000073    0.15532946
            21            22            23            24            25
    1    0.01893633    0.08082359    0.01893633    0.08082359    0.00000843
    2    0.19455084    0.40129303    0.19455084    0.40129303    0.00290769
    3   -0.11040503   -0.08835260   -0.11040503   -0.08835260    0.00655358
    4   -0.12854532   -0.10286953   -0.12854532   -0.10286953    0.00108135
    5   -0.23963802   -0.19177244    0.23963802    0.19177244    0.00293176
    6    0.33865485    0.66868345    0.33865485    0.66868345    0.06195117
    7   -0.18935151   -0.22163798   -0.18935151   -0.22163798    0.15535795
    8   -0.22046325   -0.25805460   -0.22046325   -0.25805460    0.02563428
    9   -0.41099416   -0.48107309    0.41099416    0.48107309    0.06949986
   10    0.00000240    0.00796524    0.00000240    0.00796524    0.02183174
   11    0.00055549    0.05253586    0.00055549    0.05253586    0.17742456
   12   -0.00124487   -0.04404385   -0.00124487   -0.04404385    0.09262704
   13   -0.00022539   -0.00797427   -0.00022539   -0.00797427    0.10784629
   14   -0.00059135   -0.02092224    0.00059135    0.02092224    0.20105028
   15    0.02715401    0.16696361    0.02715401    0.16696361    0.35880081
   16   -0.07665921   -0.24712113   -0.07665921   -0.24712113    0.20672317
   17   -0.01387938   -0.04474202   -0.01387938   -0.04474202    0.24068919
   18   -0.03641559   -0.11739047    0.03641559    0.11739047    0.44869998
   19    0.00776076    0.11687070    0.00776076    0.11687070    0.00018750
   20    0.11687070    0.35475593    0.11687070    0.35475593    0.03000073
   21    1.00000000    0.64589894    0.00776076    0.11687070    0.00000249
   22    0.64589894    1.00000000    0.11687070    0.35475593    0.00618616
   23    0.00776076    0.11687070    1.00000000    0.64589894    0.00018750
   24    0.11687070    0.35475593    0.64589894    1.00000000    0.03000073
   25    0.00000249    0.00618616    0.00018750    0.03000073    1.00000000
   26    0.00618616    0.05945881    0.03000073    0.15532946    0.64589894
   27    0.00018750    0.03000073    0.00000249    0.00618616    0.01506661
   28    0.03000073    0.15532946    0.00618616    0.05945881    0.14879485
            26            27            28
    1    0.01213999    0.00000843    0.01213999
    2    0.08561429    0.00290769    0.08561429
    3    0.08109684    0.00655358    0.08109684
    4    0.01338109    0.00108135    0.01338109
    5    0.03627892   -0.00293176   -0.03627892
    6    0.24397992    0.06195117    0.24397992
    7    0.36357081    0.15535795    0.36357081
    8    0.05998970    0.02563428    0.05998970
    9    0.16264452   -0.06949986   -0.16264452
   10    0.07025713    0.02183174    0.07025713
   11    0.34764729    0.17742456    0.34764729
   12    0.06132807    0.09262704    0.06132807
   13    0.07140469    0.10784629    0.07140469
   14    0.13311475   -0.20105028   -0.13311475
   15    0.64369718    0.35880081    0.64369718
   16    0.19320600    0.20672317    0.19320600
   17    0.22495105    0.24068919    0.22495105
   18    0.41936046   -0.44869998   -0.41936046
   19    0.03000073    0.00018750    0.03000073
   20    0.15532946    0.03000073    0.15532946
   21    0.00618616    0.00018750    0.03000073
   22    0.05945881    0.03000073    0.15532946
   23    0.03000073    0.00000249    0.00618616
   24    0.15532946    0.00618616    0.05945881
   25    0.64589894    0.01506661    0.14879485
   26    1.00000000    0.14879485    0.41074342
   27    0.14879485    1.00000000    0.64589894
   28    0.41074342    0.64589894    1.00000000
 Sao packed
             1             2             3             4             5
    1    1.00000000    0.19144744    1.00000000    0.00000000    0.00000000
             6             7             8             9            10
    1    1.00000000    0.00000000    0.00000000    0.00000000    1.00000000
 BOao
             1             2             3             4             5
    1    1.01816127    0.05542618    0.00319507    0.00014385   -0.00000000
    2    0.05542618    0.05196540   -0.00205540   -0.00142670   -0.00000000
    3    0.00319507   -0.00205540    0.12042894    0.00226588    0.00000000
    4    0.00014385   -0.00142670    0.00226588    0.14471667    0.00000000
    5   -0.00000000   -0.00000000    0.00000000    0.00000000    0.14693878
    6   -0.19635333    0.11483725   -0.03266407    0.00402767    0.00000000
    7    0.00596644   -0.00481150    0.07867293    0.00870260    0.00000000
    8   -0.00416506    0.00289739    0.01150149    0.11046975    0.00000000
    9    0.00000000   -0.00000000   -0.00000000   -0.00000000    0.12473449
   10    0.00337160   -0.00736125   -0.02192985    0.00147499   -0.00000000
   11   -0.00463232    0.00456730    0.01816456   -0.00176445   -0.00000000
   12    0.02837988   -0.02880876   -0.11023954    0.01211854   -0.00000000
   13   -0.00204306    0.00524650    0.01060236   -0.00360563    0.00000000
   14   -0.00000000   -0.00000000    0.00000000   -0.00000000   -0.00126321
   15    0.00999467    0.00273075    0.08318357   -0.00061714   -0.00000000
   16    0.01247709   -0.02018290   -0.11704352    0.01538955    0.00000000
   17   -0.00473855    0.00826459    0.01991053   -0.02351968   -0.00000000
   18    0.00000000   -0.00000000    0.00000000    0.00000000   -0.01020017
   19   -0.02589781    0.02354767   -0.02302574    0.10343740   -0.00000000
   20    0.01280717    0.00146315   -0.02442243    0.10488445   -0.00000000
   21   -0.02705480    0.02648184   -0.03489170   -0.04814237   -0.08659747
   22    0.00913439    0.00723918   -0.02748893   -0.04588080   -0.07711358
   23   -0.02705480    0.02648184   -0.03489170   -0.04814237    0.08659747
   24    0.00913439    0.00723918   -0.02748893   -0.04588080    0.07711358
   25    0.00499095   -0.00448751   -0.01953576   -0.00124857   -0.00740542
   26    0.00948517   -0.00654305   -0.02886866   -0.00456716   -0.01772482
   27    0.00499095   -0.00448751   -0.01953576   -0.00124857    0.00740542
   28    0.00948517   -0.00654305   -0.02886866   -0.00456716    0.01772482
             6             7             8             9            10
    1   -0.19635333    0.00596644   -0.00416506    0.00000000    0.00337160
    2    0.11483725   -0.00481150    0.00289739   -0.00000000   -0.00736125
    3   -0.03266407    0.07867293    0.01150149   -0.00000000   -0.02192985
    4    0.00402767    0.00870260    0.11046975   -0.00000000    0.00147499
    5    0.00000000    0.00000000    0.00000000    0.12473449   -0.00000000
    6    0.37877001   -0.02507981    0.01293769   -0.00000000    0.02783642
    7   -0.02507981    0.05498809    0.01323718   -0.00000000    0.00453219
    8    0.01293769    0.01323718    0.08671170   -0.00000000    0.00400927
    9   -0.00000000   -0.00000000   -0.00000000    0.10588589    0.00000000
   10    0.02783642    0.00453219    0.00400927    0.00000000    1.02396790
   11   -0.00414956    0.00320117   -0.00444813    0.00000000    0.05226172
   12   -0.07086652   -0.07573226   -0.00583072    0.00000000   -0.00584480
   13   -0.01470022   -0.00191678    0.01138020    0.00000000    0.01810023
   14   -0.00000000   -0.00000000   -0.00000000   -0.00084837    0.00000000
   15   -0.06957573    0.02242087   -0.01276115    0.00000000   -0.22499040
   16   -0.03612732   -0.07843233   -0.00397844   -0.00000000    0.00646627
   17   -0.01452571    0.00166818    0.00094621    0.00000000    0.01411238
   18   -0.00000000   -0.00000000    0.00000000   -0.00845721    0.00000000
   19    0.08208005   -0.01114059    0.07807516   -0.00000000   -0.00094036
   20    0.01395917   -0.01030716    0.07474772   -0.00000000   -0.00447827
   21    0.08105380   -0.02727783   -0.03628696   -0.07350012    0.00389692
   22    0.01655246   -0.02128341   -0.03535307   -0.06543398    0.00568423
   23    0.08105380   -0.02727783   -0.03628696    0.07350012    0.00389692
   24    0.01655246   -0.02128341   -0.03535307    0.06543398    0.00568423
   25   -0.02802075   -0.02144891   -0.00334546   -0.00615040   -0.02051637
   26   -0.02300628   -0.02247792   -0.00555052   -0.01493329    0.00574561
   27   -0.02802075   -0.02144891   -0.00334546    0.00615040   -0.02051637
   28   -0.02300628   -0.02247792   -0.00555052    0.01493329    0.00574561
            11            12            13            14            15
    1   -0.00463232    0.02837988   -0.00204306   -0.00000000    0.00999467
    2    0.00456730   -0.02880876    0.00524650   -0.00000000    0.00273075
    3    0.01816456   -0.11023954    0.01060236    0.00000000    0.08318357
    4   -0.00176445    0.01211854   -0.00360563   -0.00000000   -0.00061714
    5   -0.00000000   -0.00000000    0.00000000   -0.00126321   -0.00000000
    6   -0.00414956   -0.07086652   -0.01470022   -0.00000000   -0.06957573
    7    0.00320117   -0.07573226   -0.00191678   -0.00000000    0.02242087
    8   -0.00444813   -0.00583072    0.01138020   -0.00000000   -0.01276115
    9    0.00000000    0.00000000    0.00000000   -0.00084837    0.00000000
   10    0.05226172   -0.00584480    0.01810023    0.00000000   -0.22499040
   11    0.05157998    0.00634602   -0.01632414    0.00000000    0.14517842
   12    0.00634602    0.14392732   -0.01732183   -0.00000000    0.01761117
   13   -0.01632414   -0.01732183    0.21909428    0.00000000   -0.08245323
   14    0.00000000   -0.00000000    0.00000000    0.14676068   -0.00000000
   15    0.14517842    0.01761117   -0.08245323   -0.00000000    0.56198025
   16    0.00476241    0.14073508   -0.04277281    0.00000000    0.00660749
   17   -0.02384981   -0.03352729    0.27692362    0.00000000   -0.11117369
   18    0.00000000    0.00000000   -0.00000000    0.13218490    0.00000000
   19    0.00008359    0.01428887   -0.02309471   -0.00000000   -0.00543839
   20    0.00378700    0.03660075   -0.05118761   -0.00000000    0.01873740
   21   -0.00366590    0.00769398    0.01091627    0.00820310   -0.03002823
   22   -0.00552765    0.01636561    0.02148166    0.01820515   -0.02921254
   23   -0.00366590    0.00769398    0.01091627   -0.00820310   -0.03002823
   24   -0.00552765    0.01636561    0.02148166   -0.01820515   -0.02921254
   25    0.02044092    0.04071630    0.04312683    0.08916265    0.06573137
   26    0.00275583    0.03823373    0.03269554    0.07425660    0.00074289
   27    0.02044092    0.04071630    0.04312683   -0.08916265    0.06573137
   28    0.00275583    0.03823373    0.03269554   -0.07425660    0.00074289
            16            17            18            19            20
    1    0.01247709   -0.00473855    0.00000000   -0.02589781    0.01280717
    2   -0.02018290    0.00826459   -0.00000000    0.02354767    0.00146315
    3   -0.11704352    0.01991053    0.00000000   -0.02302574   -0.02442243
    4    0.01538955   -0.02351968    0.00000000    0.10343740    0.10488445
    5    0.00000000   -0.00000000   -0.01020017   -0.00000000   -0.00000000
    6   -0.03612732   -0.01452571   -0.00000000    0.08208005    0.01395917
    7   -0.07843233    0.00166818   -0.00000000   -0.01114059   -0.01030716
    8   -0.00397844    0.00094621    0.00000000    0.07807516    0.07474772
    9   -0.00000000    0.00000000   -0.00845721   -0.00000000   -0.00000000
   10    0.00646627    0.01411238    0.00000000   -0.00094036   -0.00447827
   11    0.00476241   -0.02384981    0.00000000    0.00008359    0.00378700
   12    0.14073508   -0.03352729    0.00000000    0.01428887    0.03660075
   13   -0.04277281    0.27692362   -0.00000000   -0.02309471   -0.05118761
   14    0.00000000    0.00000000    0.13218490   -0.00000000   -0.00000000
   15    0.00660749   -0.11117369    0.00000000   -0.00543839    0.01873740
   16    0.14385559   -0.06563406    0.00000000    0.02580862    0.04536822
   17   -0.06563406    0.35344677   -0.00000000   -0.04311853   -0.08012519
   18    0.00000000   -0.00000000    0.11961570    0.00000000    0.00000000
   19    0.02580862   -0.04311853    0.00000000    0.09502855    0.08525732
   20    0.04536822   -0.08012519    0.00000000    0.08525732    0.09244530
   21    0.01313406    0.01922734    0.01272531   -0.01370737   -0.02934451
   22    0.01526635    0.03177073    0.02114373   -0.02670083   -0.03196710
   23    0.01313406    0.01922734   -0.01272531   -0.01370737   -0.02934451
   24    0.01526635    0.03177073   -0.02114373   -0.02670083   -0.03196710
   25    0.03172641    0.05033422    0.08071674   -0.00384234   -0.00266663
   26    0.03259439    0.03869327    0.06793552   -0.00501647   -0.00343634
   27    0.03172641    0.05033422   -0.08071674   -0.00384234   -0.00266663
   28    0.03259439    0.03869327   -0.06793552   -0.00501647   -0.00343634
            21            22            23            24            25
    1   -0.02705480    0.00913439   -0.02705480    0.00913439    0.00499095
    2    0.02648184    0.00723918    0.02648184    0.00723918   -0.00448751
    3   -0.03489170   -0.02748893   -0.03489170   -0.02748893   -0.01953576
    4   -0.04814237   -0.04588080   -0.04814237   -0.04588080   -0.00124857
    5   -0.08659747   -0.07711358    0.08659747    0.07711358   -0.00740542
    6    0.08105380    0.01655246    0.08105380    0.01655246   -0.02802075
    7   -0.02727783   -0.02128341   -0.02727783   -0.02128341   -0.02144891
    8   -0.03628696   -0.03535307   -0.03628696   -0.03535307   -0.00334546
    9   -0.07350012   -0.06543398    0.07350012    0.06543398   -0.00615040
   10    0.00389692    0.00568423    0.00389692    0.00568423   -0.02051637
   11   -0.00366590   -0.00552765   -0.00366590   -0.00552765    0.02044092
   12    0.00769398    0.01636561    0.00769398    0.01636561    0.04071630
   13    0.01091627    0.02148166    0.01091627    0.02148166    0.04312683
   14    0.00820310    0.01820515   -0.00820310   -0.01820515    0.08916265
   15   -0.03002823   -0.02921254   -0.03002823   -0.02921254    0.06573137
   16    0.01313406    0.01526635    0.01313406    0.01526635    0.03172641
   17    0.01922734    0.03177073    0.01922734    0.03177073    0.05033422
   18    0.01272531    0.02114373   -0.01272531   -0.02114373    0.08071674
   19   -0.01370737   -0.02670083   -0.01370737   -0.02670083   -0.00384234
   20   -0.02934451   -0.03196710   -0.02934451   -0.03196710   -0.00266663
   21    0.09299868    0.07312316   -0.00983087   -0.01955286    0.01295222
   22    0.07312316    0.06610151   -0.01955286   -0.01903095    0.02283924
   23   -0.00983087   -0.01955286    0.09299868    0.07312316   -0.00483346
   24   -0.01955286   -0.01903095    0.07312316    0.06610151   -0.00623498
   25    0.01295222    0.02283924   -0.00483346   -0.00623498    0.08862809
   26    0.02069179    0.02867710   -0.00773300   -0.00764347    0.06673484
   27   -0.00483346   -0.00623498    0.01295222    0.02283924   -0.02031104
   28   -0.00773300   -0.00764347    0.02069179    0.02867710   -0.02503634
            26            27            28
    1    0.00948517    0.00499095    0.00948517
    2   -0.00654305   -0.00448751   -0.00654305
    3   -0.02886866   -0.01953576   -0.02886866
    4   -0.00456716   -0.00124857   -0.00456716
    5   -0.01772482    0.00740542    0.01772482
    6   -0.02300628   -0.02802075   -0.02300628
    7   -0.02247792   -0.02144891   -0.02247792
    8   -0.00555052   -0.00334546   -0.00555052
    9   -0.01493329    0.00615040    0.01493329
   10    0.00574561   -0.02051637    0.00574561
   11    0.00275583    0.02044092    0.00275583
   12    0.03823373    0.04071630    0.03823373
   13    0.03269554    0.04312683    0.03269554
   14    0.07425660   -0.08916265   -0.07425660
   15    0.00074289    0.06573137    0.00074289
   16    0.03259439    0.03172641    0.03259439
   17    0.03869327    0.05033422    0.03869327
   18    0.06793552   -0.08071674   -0.06793552
   19   -0.00501647   -0.00384234   -0.00501647
   20   -0.00343634   -0.00266663   -0.00343634
   21    0.02069179   -0.00483346   -0.00773300
   22    0.02867710   -0.00623498   -0.00764347
   23   -0.00773300    0.01295222    0.02069179
   24   -0.00764347    0.02283924    0.02867710
   25    0.06673484   -0.02031104   -0.02503634
   26    0.05677586   -0.02503634   -0.02234112
   27   -0.02503634    0.08862809    0.06673484
   28   -0.02234112    0.06673484    0.05677586
 Fao
             1             2             3             4             5
    1  -11.12777749   -2.85897537   -0.00361621   -0.00018377    0.00000000
    2   -2.85897537   -0.89570440    0.00272778   -0.00495286    0.00000000
    3   -0.00361621    0.00272778    0.11149769   -0.00736692    0.00000000
    4   -0.00018377   -0.00495286   -0.00736692    0.09174596    0.00000000
    5    0.00000000    0.00000000    0.00000000    0.00000000    0.08120108
    6   -2.39031303   -1.37298947   -0.00452598   -0.00495710    0.00000000
    7   -0.00120851    0.00562093   -0.50348680   -0.00505321    0.00000000
    8    0.00001634   -0.00439429   -0.00513675   -0.51196265    0.00000000
    9    0.00000000    0.00000000    0.00000000    0.00000000   -0.51854862
   10   -0.00003980   -0.04049117   -0.12188572    0.01132955    0.00000000
   11   -0.00829864   -0.20465030   -0.34109931    0.03300838    0.00000000
   12    0.02550700    0.28012340    0.38246267   -0.04005417   -0.00000000
   13   -0.00241726   -0.02774537   -0.04744830   -0.07197937    0.00000000
   14   -0.00000000   -0.00000000   -0.00000000    0.00000000   -0.07073696
   15   -0.39428868   -0.42468642   -0.34165100    0.03106805   -0.00000000
   16    1.08768811    0.71771946    0.27290995   -0.03451762    0.00000000
   17   -0.10274426   -0.06869406   -0.04413296   -0.16485999   -0.00000000
   18    0.00000000    0.00000000    0.00000000   -0.00000000   -0.16504609
   19   -0.27688622   -0.47596899    0.11417175   -0.45960750    0.00000000
   20   -1.08234028   -0.81183583    0.07704695   -0.32300229    0.00000000
   21   -0.27675533   -0.47669556    0.17638321    0.20673747    0.38756029
   22   -1.08224194   -0.81052175    0.12203566    0.14233890    0.27110206
   23   -0.27675533   -0.47669556    0.17638321    0.20673747   -0.38756029
   24   -1.08224194   -0.81052175    0.12203566    0.14233890   -0.27110206
   25   -0.00034510   -0.01641037   -0.03511994   -0.00679612   -0.01626207
   26   -0.16675003   -0.20544935   -0.14777897   -0.01919118   -0.05573277
   27   -0.00034510   -0.01641037   -0.03511994   -0.00679612    0.01626207
   28   -0.16675003   -0.20544935   -0.14777897   -0.01919118    0.05573277
             6             7             8             9            10
    1   -2.39031303   -0.00120851    0.00001634    0.00000000   -0.00003980
    2   -1.37298947    0.00562093   -0.00439429    0.00000000   -0.04049117
    3   -0.00452598   -0.50348680   -0.00513675    0.00000000   -0.12188572
    4   -0.00495710   -0.00505321   -0.51196265    0.00000000    0.01132955
    5    0.00000000    0.00000000    0.00000000   -0.51854862    0.00000000
    6   -1.40759723   -0.12296434   -0.00236794    0.00000000   -0.60740171
    7   -0.12296434   -0.54732899    0.00712087    0.00000000   -1.43912823
    8   -0.00236794    0.00712087   -0.29374939    0.00000000    0.13493324
    9    0.00000000    0.00000000    0.00000000   -0.30542029   -0.00000000
   10   -0.60740171   -1.43912823    0.13493324   -0.00000000  -15.36134890
   11   -0.52991790   -0.97917848    0.08886883   -0.00000000   -4.06723871
   12    0.26977091    0.25120447   -0.03654547    0.00000000    0.00748845
   13   -0.04086454   -0.07889599   -0.19582885   -0.00000000   -0.02456210
   14    0.00000000    0.00000000   -0.00000000   -0.19512638   -0.00000000
   15   -0.70106319   -0.88947215    0.06289021   -0.00000000   -3.38994935
   16    0.63851306    0.06488393   -0.01369617    0.00000000    0.00150791
   17   -0.08901269   -0.08731461   -0.15786717   -0.00000000   -0.00510644
   18    0.00000000    0.00000000   -0.00000000   -0.18226905   -0.00000000
   19   -0.47929887    0.09967285   -0.39521582    0.00000000   -0.00008841
   20   -0.81364018    0.01049664   -0.21525077    0.00000000   -0.15187480
   21   -0.47848312    0.15314525    0.17583292    0.33113621   -0.00040692
   22   -0.80740412    0.04488508    0.09061914    0.17838542   -0.15166838
   23   -0.47848312    0.15314525    0.17583292   -0.33113621   -0.00040692
   24   -0.80740412    0.04488508    0.09061914   -0.17838542   -0.15166838
   25   -0.13582672   -0.28637125   -0.03358378   -0.10281241   -0.42972368
   26   -0.36483521   -0.46071123   -0.01180340   -0.07767013   -1.30966886
   27   -0.13582672   -0.28637125   -0.03358378    0.10281241   -0.42972368
   28   -0.36483521   -0.46071123   -0.01180340    0.07767013   -1.30966886
            11            12            13            14            15
    1   -0.00829864    0.02550700   -0.00241726   -0.00000000   -0.39428868
    2   -0.20465030    0.28012340   -0.02774537   -0.00000000   -0.42468642
    3   -0.34109931    0.38246267   -0.04744830   -0.00000000   -0.34165100
    4    0.03300838   -0.04005417   -0.07197937    0.00000000    0.03106805
    5    0.00000000   -0.00000000    0.00000000   -0.07073696   -0.00000000
    6   -0.52991790    0.26977091   -0.04086454    0.00000000   -0.70106319
    7   -0.97917848    0.25120447   -0.07889599    0.00000000   -0.88947215
    8    0.08886883   -0.03654547   -0.19582885   -0.00000000    0.06289021
    9   -0.00000000    0.00000000   -0.00000000   -0.19512638   -0.00000000
   10   -4.06723871    0.00748845   -0.02456210   -0.00000000   -3.38994935
   11   -1.12344562    0.00639258   -0.05109965   -0.00000000   -1.82634223
   12    0.00639258    0.25626055    0.01197306    0.00000000    0.01114230
   13   -0.05109965    0.01197306    0.17461688    0.00000000   -0.07001108
   14   -0.00000000    0.00000000    0.00000000    0.23050451   -0.00000000
   15   -1.82634223    0.01114230   -0.07001108   -0.00000000   -1.75819658
   16    0.00029649   -0.60839140   -0.00269460    0.00000000    0.10241857
   17   -0.04092785   -0.00258628   -0.62885853    0.00000000   -0.14560913
   18   -0.00000000    0.00000000    0.00000000   -0.63216840   -0.00000000
   19   -0.00411932    0.00633225    0.00277995   -0.00000000   -0.07674449
   20   -0.17615212    0.10179603   -0.06906088   -0.00000000   -0.29454808
   21   -0.00110760    0.01012535   -0.00202823    0.00289017   -0.07510359
   22   -0.17413274    0.10881913    0.01200624    0.04660396   -0.28714412
   23   -0.00110760    0.01012535   -0.00202823   -0.00289017   -0.07510359
   24   -0.17413274    0.10881913    0.01200624   -0.04660396   -0.28714412
   25   -0.59545702   -0.19883785   -0.24451811   -0.44093366   -0.59100233
   26   -0.98373985   -0.11948964   -0.18243361   -0.27468287   -0.96571734
   27   -0.59545702   -0.19883785   -0.24451811    0.44093366   -0.59100233
   28   -0.98373985   -0.11948964   -0.18243361    0.27468287   -0.96571734
            16            17            18            19            20
    1    1.08768811   -0.10274426    0.00000000   -0.27688622   -1.08234028
    2    0.71771946   -0.06869406    0.00000000   -0.47596899   -0.81183583
    3    0.27290995   -0.04413296    0.00000000    0.11417175    0.07704695
    4   -0.03451762   -0.16485999   -0.00000000   -0.45960750   -0.32300229
    5    0.00000000   -0.00000000   -0.16504609    0.00000000    0.00000000
    6    0.63851306   -0.08901269    0.00000000   -0.47929887   -0.81364018
    7    0.06488393   -0.08731461    0.00000000    0.09967285    0.01049664
    8   -0.01369617   -0.15786717   -0.00000000   -0.39521582   -0.21525077
    9    0.00000000   -0.00000000   -0.18226905    0.00000000    0.00000000
   10    0.00150791   -0.00510644   -0.00000000   -0.00008841   -0.15187480
   11    0.00029649   -0.04092785   -0.00000000   -0.00411932   -0.17615212
   12   -0.60839140   -0.00258628    0.00000000    0.00633225    0.10179603
   13   -0.00269460   -0.62885853    0.00000000    0.00277995   -0.06906088
   14    0.00000000    0.00000000   -0.63216840   -0.00000000   -0.00000000
   15    0.10241857   -0.14560913   -0.00000000   -0.07674449   -0.29454808
   16   -0.43597071   -0.02265538    0.00000000    0.16709720    0.33863984
   17   -0.02265538   -0.15664386    0.00000000   -0.09861096   -0.12581651
   18    0.00000000    0.00000000   -0.29899090   -0.00000000    0.00000000
   19    0.16709720   -0.09861096   -0.00000000    0.02029555   -0.56959025
   20    0.33863984   -0.12581651    0.00000000   -0.56959025   -0.58145320
   21    0.18131106    0.02433132    0.07558400   -0.04380165   -0.21289733
   22    0.34752466   -0.00307710    0.07352129   -0.21280337   -0.43010394
   23    0.18131106    0.02433132   -0.07558400   -0.04380165   -0.21289733
   24    0.34752466   -0.00307710   -0.07352129   -0.21280337   -0.43010394
   25   -0.15740445   -0.19149626   -0.34628081    0.00252706   -0.06405306
   26   -0.02846281   -0.17015602   -0.18481157   -0.06394119   -0.17977770
   27   -0.15740445   -0.19149626    0.34628081    0.00252706   -0.06405306
   28   -0.02846281   -0.17015602    0.18481157   -0.06394119   -0.17977770
            21            22            23            24            25
    1   -0.27675533   -1.08224194   -0.27675533   -1.08224194   -0.00034510
    2   -0.47669556   -0.81052175   -0.47669556   -0.81052175   -0.01641037
    3    0.17638321    0.12203566    0.17638321    0.12203566   -0.03511994
    4    0.20673747    0.14233890    0.20673747    0.14233890   -0.00679612
    5    0.38756029    0.27110206   -0.38756029   -0.27110206   -0.01626207
    6   -0.47848312   -0.80740412   -0.47848312   -0.80740412   -0.13582672
    7    0.15314525    0.04488508    0.15314525    0.04488508   -0.28637125
    8    0.17583292    0.09061914    0.17583292    0.09061914   -0.03358378
    9    0.33113621    0.17838542   -0.33113621   -0.17838542   -0.10281241
   10   -0.00040692   -0.15166838   -0.00040692   -0.15166838   -0.42972368
   11   -0.00110760   -0.17413274   -0.00110760   -0.17413274   -0.59545702
   12    0.01012535    0.10881913    0.01012535    0.10881913   -0.19883785
   13   -0.00202823    0.01200624   -0.00202823    0.01200624   -0.24451811
   14    0.00289017    0.04660396   -0.00289017   -0.04660396   -0.44093366
   15   -0.07510359   -0.28714412   -0.07510359   -0.28714412   -0.59100233
   16    0.18131106    0.34752466    0.18131106    0.34752466   -0.15740445
   17    0.02433132   -0.00307710    0.02433132   -0.00307710   -0.19149626
   18    0.07558400    0.07352129   -0.07558400   -0.07352129   -0.34628081
   19   -0.04380165   -0.21280337   -0.04380165   -0.21280337    0.00252706
   20   -0.21289733   -0.43010394   -0.21289733   -0.43010394   -0.06405306
   21    0.02557739   -0.56450139   -0.04572255   -0.21331905   -0.00609744
   22   -0.56450139   -0.57019652   -0.21331905   -0.42722497   -0.02135839
   23   -0.04572255   -0.21331905    0.02557739   -0.56450139    0.00252880
   24   -0.21331905   -0.42722497   -0.56450139   -0.57019652   -0.06339679
   25   -0.00609744   -0.02135839    0.00252880   -0.06339679   -0.04301188
   26   -0.01934377   -0.11987114   -0.06404104   -0.17562504   -0.60299839
   27    0.00252880   -0.06339679   -0.00609744   -0.02135839   -0.07670454
   28   -0.06404104   -0.17562504   -0.01934377   -0.11987114   -0.27342949
            26            27            28
    1   -0.16675003   -0.00034510   -0.16675003
    2   -0.20544935   -0.01641037   -0.20544935
    3   -0.14777897   -0.03511994   -0.14777897
    4   -0.01919118   -0.00679612   -0.01919118
    5   -0.05573277    0.01626207    0.05573277
    6   -0.36483521   -0.13582672   -0.36483521
    7   -0.46071123   -0.28637125   -0.46071123
    8   -0.01180340   -0.03358378   -0.01180340
    9   -0.07767013    0.10281241    0.07767013
   10   -1.30966886   -0.42972368   -1.30966886
   11   -0.98373985   -0.59545702   -0.98373985
   12   -0.11948964   -0.19883785   -0.11948964
   13   -0.18243361   -0.24451811   -0.18243361
   14   -0.27468287    0.44093366    0.27468287
   15   -0.96571734   -0.59100233   -0.96571734
   16   -0.02846281   -0.15740445   -0.02846281
   17   -0.17015602   -0.19149626   -0.17015602
   18   -0.18481157    0.34628081    0.18481157
   19   -0.06394119    0.00252706   -0.06394119
   20   -0.17977770   -0.06405306   -0.17977770
   21   -0.01934377    0.00252880   -0.06404104
   22   -0.11987114   -0.06339679   -0.17562504
   23   -0.06404104   -0.00609744   -0.01934377
   24   -0.17562504   -0.02135839   -0.11987114
   25   -0.60299839   -0.07670454   -0.27342949
   26   -0.60528120   -0.27342949   -0.49758446
   27   -0.27342949   -0.04301188   -0.60299839
   28   -0.49758446   -0.60299839   -0.60528120
 itmp=   123456789  -987654321

 *********************************** NBO 6.0 ***********************************
             N A T U R A L   A T O M I C   O R B I T A L   A N D
          N A T U R A L   B O N D   O R B I T A L   A N A L Y S I S
 ***************************** development version *****************************
  (c) Copyright 1996-2014 Board of Regents of the University of Wisconsin System
      on behalf of the Theoretical Chemistry Institute.  All rights reserved.

          Cite this program as:

          NBO 6.0.  E. D. Glendening, J. K. Badenhoop, A. E. Reed,
          J. E. Carpenter, J. A. Bohmann, C. M. Morales, C. R. Landis,
          and F. Weinhold (Theoretical Chemistry Institute, University
          of Wisconsin, Madison, WI, 2013); http://nbo6.chem.wisc.edu/

 Filename set to ch3nh2
 nat=           7
 NBas=          28
 iopen=           0
 escf=  -94.6794449416210     
 sending         406  elements

 Job title:  unknown


 NATURAL POPULATIONS:  Natural atomic orbital occupancies

  NAO Atom No lang   Type(AO)    Occupancy      Energy
 -------------------------------------------------------
   1    C  1  s      Cor( 1s)     1.99900     -11.04185
   2    C  1  s      Val( 2s)     1.09033      -0.28182
   3    C  1  s      Ryd( 3s)     0.00067       1.95525
   4    C  1  px     Val( 2p)     0.89070      -0.01613
   5    C  1  px     Ryd( 3p)     0.00134       0.93088
   6    C  1  py     Val( 2p)     1.21227      -0.07218
   7    C  1  py     Ryd( 3p)     0.00067       1.02985
   8    C  1  pz     Val( 2p)     1.24521      -0.08880
   9    C  1  pz     Ryd( 3p)     0.00056       1.01778

  10    N  2  s      Cor( 1s)     1.99953     -15.25949
  11    N  2  s      Val( 2s)     1.42608      -0.71700
  12    N  2  s      Ryd( 3s)     0.00016       2.75795
  13    N  2  px     Val( 2p)     1.28288      -0.18078
  14    N  2  px     Ryd( 3p)     0.00110       1.56864
  15    N  2  py     Val( 2p)     1.83290      -0.33848
  16    N  2  py     Ryd( 3p)     0.00186       1.48520
  17    N  2  pz     Val( 2p)     1.35223      -0.19198
  18    N  2  pz     Ryd( 3p)     0.00071       1.59463

  19    H  3  s      Val( 1s)     0.81448       0.13276
  20    H  3  s      Ryd( 2s)     0.00177       0.95103

  21    H  4  s      Val( 1s)     0.78187       0.15348
  22    H  4  s      Ryd( 2s)     0.00096       0.94557

  23    H  5  s      Val( 1s)     0.78187       0.15348
  24    H  5  s      Ryd( 2s)     0.00096       0.94557

  25    H  6  s      Val( 1s)     0.63872       0.20544
  26    H  6  s      Ryd( 2s)     0.00123       0.99979

  27    H  7  s      Val( 1s)     0.63872       0.20544
  28    H  7  s      Ryd( 2s)     0.00123       0.99979


 Summary of Natural Population Analysis:

                                     Natural Population
             Natural    ---------------------------------------------
  Atom No    Charge        Core      Valence    Rydberg      Total
 --------------------------------------------------------------------
    C  1   -0.44076      1.99900     4.43852    0.00324     6.44076
    N  2   -0.89745      1.99953     5.89409    0.00383     7.89745
    H  3    0.18375      0.00000     0.81448    0.00177     0.81625
    H  4    0.21718      0.00000     0.78187    0.00096     0.78282
    H  5    0.21718      0.00000     0.78187    0.00096     0.78282
    H  6    0.36005      0.00000     0.63872    0.00123     0.63995
    H  7    0.36005      0.00000     0.63872    0.00123     0.63995
 ====================================================================
 * Total *  0.00000      3.99853    13.98826    0.01321    18.00000

                                 Natural Population
 ---------------------------------------------------------
   Core                       3.99853 ( 99.9632% of    4)
   Valence                   13.98826 ( 99.9161% of   14)
   Natural Minimal Basis     17.98679 ( 99.9266% of   18)
   Natural Rydberg Basis      0.01321 (  0.0734% of   18)
 ---------------------------------------------------------

    Atom No         Natural Electron Configuration
 ----------------------------------------------------------------------------
      C  1      [core]2s( 1.09)2p( 3.35)
      N  2      [core]2s( 1.43)2p( 4.47)
      H  3            1s( 0.81)
      H  4            1s( 0.78)
      H  5            1s( 0.78)
      H  6            1s( 0.64)
      H  7            1s( 0.64)


 NATURAL BOND ORBITAL ANALYSIS:

                            Occupancies       Lewis Structure    Low   High
         Max    Occ     -------------------  -----------------   occ   occ
  Cycle  Ctr   Thresh    Lewis   non-Lewis     CR  BD  nC  LP    (L)   (NL)
 ============================================================================
    1     2     1.90    17.95050   0.04950      2   6   0   1     0      0
 ----------------------------------------------------------------------------

 Structure accepted: No low occupancy Lewis orbitals

 -------------------------------------------------------
   Core                      3.99853 ( 99.963% of   4)
   Valence Lewis            13.95197 ( 99.657% of  14)
  ==================      =============================
   Total Lewis              17.95050 ( 99.725% of  18)
  -----------------------------------------------------
   Valence non-Lewis         0.03979 (  0.221% of  18)
   Rydberg non-Lewis         0.00971 (  0.054% of  18)
  ==================      =============================
   Total non-Lewis           0.04950 (  0.275% of  18)
 -------------------------------------------------------


     (Occupancy)   Bond orbital / Coefficients / Hybrids
 ------------------ Lewis ------------------------------------------------------
   1. (1.99900) CR ( 1) C  1            s(100.00%)
                                         1.0000  0.0000  0.0000  0.0000  0.0000
                                         0.0000  0.0000  0.0000  0.0000
   2. (1.99953) CR ( 1) N  2            s(100.00%)
                                         1.0000  0.0000  0.0000  0.0000  0.0000
                                         0.0000  0.0000  0.0000  0.0000
   3. (1.97796) LP ( 1) N  2            s( 17.96%)p 4.57( 82.04%)
                                         0.0000  0.4237  0.0003  0.2369 -0.0023
                                        -0.8741  0.0165  0.0000  0.0000
   4. (1.99854) BD ( 1) C  1- N  2
               ( 40.06%)   0.6329* C  1 s( 21.82%)p 3.58( 78.18%)
                                         0.0000  0.4665  0.0235  0.8800  0.0286
                                        -0.0808 -0.0110  0.0000  0.0000
               ( 59.94%)   0.7742* N  2 s( 30.87%)p 2.24( 69.13%)
                                         0.0000  0.5556 -0.0008 -0.8302 -0.0007
                                         0.0442 -0.0099  0.0000  0.0000
   5. (1.99864) BD ( 1) C  1- H  3
               ( 59.72%)   0.7728* C  1 s( 25.84%)p 2.87( 74.16%)
                                         0.0000  0.5083 -0.0068 -0.1919 -0.0097
                                         0.8394 -0.0045  0.0000  0.0000
               ( 40.28%)   0.6347* H  3 s(100.00%)
                                         1.0000  0.0030
   6. (1.99400) BD ( 1) C  1- H  4
               ( 61.02%)   0.7812* C  1 s( 26.20%)p 2.82( 73.80%)
                                         0.0000  0.5118 -0.0038 -0.3061 -0.0014
                                        -0.3799  0.0016 -0.7070  0.0102
               ( 38.98%)   0.6243* H  4 s(100.00%)
                                         1.0000  0.0008
   7. (1.99400) BD ( 1) C  1- H  5
               ( 61.02%)   0.7812* C  1 s( 26.20%)p 2.82( 73.80%)
                                         0.0000  0.5118 -0.0038 -0.3061 -0.0014
                                        -0.3799  0.0016  0.7070 -0.0102
               ( 38.98%)   0.6243* H  5 s(100.00%)
                                         1.0000  0.0008
   8. (1.99442) BD ( 1) N  2- H  6
               ( 68.12%)   0.8254* N  2 s( 25.57%)p 2.91( 74.43%)
                                         0.0000  0.5057  0.0003  0.3567  0.0172
                                         0.3416 -0.0069  0.7070  0.0093
               ( 31.88%)   0.5646* H  6 s(100.00%)
                                         1.0000  0.0019
   9. (1.99442) BD ( 1) N  2- H  7
               ( 68.12%)   0.8254* N  2 s( 25.57%)p 2.91( 74.43%)
                                         0.0000  0.5057  0.0003  0.3567  0.0172
                                         0.3416 -0.0069 -0.7070 -0.0093
               ( 31.88%)   0.5646* H  7 s(100.00%)
                                         1.0000  0.0019
 ---------------- non-Lewis ----------------------------------------------------
  10. (0.00012) BD*( 1) C  1- N  2
               ( 59.94%)   0.7742* C  1 s( 21.82%)p 3.58( 78.18%)
                                         0.0000  0.4665  0.0235  0.8800  0.0286
                                        -0.0808 -0.0110  0.0000  0.0000
               ( 40.06%)  -0.6329* N  2 s( 30.87%)p 2.24( 69.13%)
                                         0.0000  0.5556 -0.0008 -0.8302 -0.0007
                                         0.0442 -0.0099  0.0000  0.0000
  11. (0.01571) BD*( 1) C  1- H  3
               ( 40.28%)   0.6347* C  1 s( 25.84%)p 2.87( 74.16%)
                                         0.0000 -0.5083  0.0068  0.1919  0.0097
                                        -0.8394  0.0045  0.0000  0.0000
               ( 59.72%)  -0.7728* H  3 s(100.00%)
                                        -1.0000 -0.0030
  12. (0.00771) BD*( 1) C  1- H  4
               ( 38.98%)   0.6243* C  1 s( 26.20%)p 2.82( 73.80%)
                                         0.0000 -0.5118  0.0038  0.3061  0.0014
                                         0.3799 -0.0016  0.7070 -0.0102
               ( 61.02%)  -0.7812* H  4 s(100.00%)
                                        -1.0000 -0.0008
  13. (0.00771) BD*( 1) C  1- H  5
               ( 38.98%)   0.6243* C  1 s( 26.20%)p 2.82( 73.80%)
                                         0.0000 -0.5118  0.0038  0.3061  0.0014
                                         0.3799 -0.0016 -0.7070  0.0102
               ( 61.02%)  -0.7812* H  5 s(100.00%)
                                        -1.0000 -0.0008
  14. (0.00428) BD*( 1) N  2- H  6
               ( 31.88%)   0.5646* N  2 s( 25.57%)p 2.91( 74.43%)
                                         0.0000 -0.5057 -0.0003 -0.3567 -0.0172
                                        -0.3416  0.0069 -0.7070 -0.0093
               ( 68.12%)  -0.8254* H  6 s(100.00%)
                                        -1.0000 -0.0019
  15. (0.00428) BD*( 1) N  2- H  7
               ( 31.88%)   0.5646* N  2 s( 25.57%)p 2.91( 74.43%)
                                         0.0000 -0.5057 -0.0003 -0.3567 -0.0172
                                        -0.3416  0.0069  0.7070  0.0093
               ( 68.12%)  -0.8254* H  7 s(100.00%)
                                        -1.0000 -0.0019
  16. (0.00103) RY ( 1) C  1            s(  1.32%)p74.84( 98.68%)
                                         0.0000 -0.0094  0.1144 -0.0299  0.7311
                                         0.0046 -0.6718  0.0000  0.0000
  17. (0.00033) RY ( 2) C  1            s(  0.00%)p 1.00(100.00%)
                                         0.0000  0.0000  0.0000  0.0000  0.0000
                                         0.0000  0.0000  0.0144  0.9999
  18. (0.00023) RY ( 3) C  1            s( 56.25%)p 0.78( 43.75%)
                                         0.0000 -0.0023  0.7500 -0.0235  0.3791
                                         0.0093  0.5414  0.0000  0.0000
  19. (0.00001) RY ( 4) C  1            s( 42.38%)p 1.36( 57.62%)
  20. (0.00110) RY ( 1) N  2            s(  1.64%)p60.04( 98.36%)
                                         0.0000 -0.0060  0.1279  0.0066  0.0375
                                        -0.0199 -0.9908  0.0000  0.0000
  21. (0.00046) RY ( 2) N  2            s(  0.00%)p 1.00(100.00%)
                                         0.0000  0.0000  0.0000  0.0000  0.0000
                                         0.0000  0.0000 -0.0131  0.9999
  22. (0.00038) RY ( 3) N  2            s( 32.98%)p 2.03( 67.02%)
                                         0.0000  0.0133  0.5741  0.0093 -0.8174
                                         0.0122  0.0429  0.0000  0.0000
  23. (0.00002) RY ( 4) N  2            s( 65.41%)p 0.53( 34.59%)
  24. (0.00178) RY ( 1) H  3            s(100.00%)
                                        -0.0030  1.0000
  25. (0.00096) RY ( 1) H  4            s(100.00%)
                                        -0.0008  1.0000
  26. (0.00096) RY ( 1) H  5            s(100.00%)
                                        -0.0008  1.0000
  27. (0.00123) RY ( 1) H  6            s(100.00%)
                                        -0.0019  1.0000
  28. (0.00123) RY ( 1) H  7            s(100.00%)
                                        -0.0019  1.0000


 NHO DIRECTIONALITY AND BOND BENDING (deviations from line of nuclear centers at
                                      the radius of maximum hybrid amplitude)

         [Thresholds for printing:  angular deviation  >  1.0 degree]
                                    p- or d-character  > 25.0%
                                    orbital occupancy  >  0.10e

                        Line of Centers        Hybrid 1             Hybrid 2
                        ---------------  -------------------  ------------------
           NBO            Theta   Phi    Theta   Phi    Dev   Theta   Phi    Dev
 ===============================================================================
   3. LP ( 1) N  2          --     --     90.0  284.5   --      --     --    --
   4. BD ( 1) C  1- N  2   90.0  354.6     --     --    --     90.0  176.6   2.0
   6. BD ( 1) C  1- H  4  144.7  229.3   145.2  231.3   1.2     --     --    --
   7. BD ( 1) C  1- H  5   35.3  229.3    34.8  231.3   1.2     --     --    --
   8. BD ( 1) N  2- H  6   35.3   49.3    35.0   44.0   3.1     --     --    --
   9. BD ( 1) N  2- H  7  144.7   49.3   145.0   44.0   3.1     --     --    --


 SECOND ORDER PERTURBATION THEORY ANALYSIS OF FOCK MATRIX IN NBO BASIS

     Threshold for printing:   0.50 kcal/mol
                                                          E(2) E(NL)-E(L) F(L,NL)
      Donor (L) NBO              Acceptor (NL) NBO      kcal/mol   a.u.    a.u.
 ===============================================================================

 within unit  1
    1. CR ( 1) C  1            22. RY ( 3) N  2            0.62   13.10   0.080
    1. CR ( 1) C  1            24. RY ( 1) H  3            1.39   11.99   0.115
    1. CR ( 1) C  1            25. RY ( 1) H  4            1.54   11.99   0.121
    1. CR ( 1) C  1            26. RY ( 1) H  5            1.54   11.99   0.121
    2. CR ( 1) N  2            16. RY ( 1) C  1            1.50   16.23   0.139
    2. CR ( 1) N  2            18. RY ( 3) C  1            0.85   16.77   0.107
    2. CR ( 1) N  2            27. RY ( 1) H  6            0.61   16.26   0.089
    2. CR ( 1) N  2            28. RY ( 1) H  7            0.61   16.26   0.089
    3. LP ( 1) N  2            11. BD*( 1) C  1- H  3      8.15    1.13   0.086
    3. LP ( 1) N  2            12. BD*( 1) C  1- H  4      1.47    1.14   0.037
    3. LP ( 1) N  2            13. BD*( 1) C  1- H  5      1.47    1.14   0.037
    5. BD ( 1) C  1- H  3      20. RY ( 1) N  2            0.79    2.18   0.037
    6. BD ( 1) C  1- H  4      13. BD*( 1) C  1- H  5      0.53    1.38   0.024
    6. BD ( 1) C  1- H  4      14. BD*( 1) N  2- H  6      3.03    1.37   0.057
    7. BD ( 1) C  1- H  5      12. BD*( 1) C  1- H  4      0.53    1.38   0.024
    7. BD ( 1) C  1- H  5      15. BD*( 1) N  2- H  7      3.03    1.37   0.057
    8. BD ( 1) N  2- H  6      12. BD*( 1) C  1- H  4      2.87    1.51   0.059
    8. BD ( 1) N  2- H  6      16. RY ( 1) C  1            0.55    1.78   0.028
    9. BD ( 1) N  2- H  7      13. BD*( 1) C  1- H  5      2.87    1.51   0.059
    9. BD ( 1) N  2- H  7      16. RY ( 1) C  1            0.55    1.78   0.028


 NATURAL BOND ORBITALS (Summary):

                                                     Principal Delocalizations
           NBO                 Occupancy    Energy   (geminal,vicinal,remote)
 ===============================================================================
 Molecular unit  1  (CH5N)
 ------ Lewis --------------------------------------
    1. CR ( 1) C  1             1.99900   -11.04185  25(v),26(v),24(v),22(v)
    2. CR ( 1) N  2             1.99953   -15.25949  16(v),18(v),27(v),28(v)
    3. LP ( 1) N  2             1.97796    -0.44635  11(v),12(v),13(v)
    4. BD ( 1) C  1- N  2       1.99854    -0.89886
    5. BD ( 1) C  1- H  3       1.99864    -0.69186  20(v)
    6. BD ( 1) C  1- H  4       1.99400    -0.68861  14(v),13(g)
    7. BD ( 1) C  1- H  5       1.99400    -0.68861  15(v),12(g)
    8. BD ( 1) N  2- H  6       1.99442    -0.80931  12(v),16(v)
    9. BD ( 1) N  2- H  7       1.99442    -0.80931  13(v),16(v)
 ------ non-Lewis ----------------------------------
   10. BD*( 1) C  1- N  2       0.00012     0.57019
   11. BD*( 1) C  1- H  3       0.01571     0.68719
   12. BD*( 1) C  1- H  4       0.00771     0.69618
   13. BD*( 1) C  1- H  5       0.00771     0.69618
   14. BD*( 1) N  2- H  6       0.00428     0.68037
   15. BD*( 1) N  2- H  7       0.00428     0.68037
   16. RY ( 1) C  1             0.00103     0.96875
   17. RY ( 2) C  1             0.00033     1.02094
   18. RY ( 3) C  1             0.00023     1.51070
   19. RY ( 4) C  1             0.00001     1.42744
   20. RY ( 1) N  2             0.00110     1.48912
   21. RY ( 2) N  2             0.00046     1.59295
   22. RY ( 3) N  2             0.00038     2.05630
   23. RY ( 4) N  2             0.00002     2.26595
   24. RY ( 1) H  3             0.00178     0.94897
   25. RY ( 1) H  4             0.00096     0.94501
   26. RY ( 1) H  5             0.00096     0.94501
   27. RY ( 1) H  6             0.00123     0.99833
   28. RY ( 1) H  7             0.00123     0.99833
          -------------------------------
                 Total Lewis   17.95050  ( 99.7250%)
           Valence non-Lewis    0.03979  (  0.2211%)
           Rydberg non-Lewis    0.00971  (  0.0539%)
          -------------------------------
               Total unit  1   18.00000  (100.0000%)
              Charge unit  1    0.00000

 $CHOOSE
   LONE 2 1 END
   BOND S 1 2 S 1 3 S 1 4 S 1 5 S 2 6 S 2 7 END
 $END

 Maximum scratch memory used by NBO was 65433 words
Archival summary:
1\1\electron.local\SP\HF\3-21G\11311\ThuJul3113:22:262014ThuJul3113:22:262014\0\\#,HF,3-21G,\\0,1\N\H,1,1.01\H,1,1.01,2,109.471\C,1,1.47,2,109.471,3,-120,0\H,4,1.09,1,109.471,2,-180,0\H,4,1.09,1,109.471,2,-60,0\H,4,1.09,1,109.471,2,60,0\\HF=-94.6794449\\@

 Total job time:  0.22s(wall), 0.16s(cpu) 
 Thu Jul 31 13:22:26 2014

        *************************************************************
        *                                                           *
        *  Thank you very much for using Q-Chem.  Have a nice day.  *
        *                                                           *
        *************************************************************


