 Entering Gaussian System, Link 0=g09
 Initial command:
 /opt/g09.e01/g09/l1.exe "/scr/ericg/c4h2/Gau-19833.inp" -scrdir="/scr/ericg/c4h2/"
 Entering Link 1 = /opt/g09.e01/g09/l1.exe PID=     19835.
  
 Copyright (c) 1988,1990,1992,1993,1995,1998,2003,2009,2015,
            Gaussian, Inc.  All Rights Reserved.
  
 This is part of the Gaussian(R) 09 program.  It is based on
 the Gaussian(R) 03 system (copyright 2003, Gaussian, Inc.),
 the Gaussian(R) 98 system (copyright 1998, Gaussian, Inc.),
 the Gaussian(R) 94 system (copyright 1995, Gaussian, Inc.),
 the Gaussian 92(TM) system (copyright 1992, Gaussian, Inc.),
 the Gaussian 90(TM) system (copyright 1990, Gaussian, Inc.),
 the Gaussian 88(TM) system (copyright 1988, Gaussian, Inc.),
 the Gaussian 86(TM) system (copyright 1986, Carnegie Mellon
 University), and the Gaussian 82(TM) system (copyright 1983,
 Carnegie Mellon University). Gaussian is a federally registered
 trademark of Gaussian, Inc.
  
 This software contains proprietary and confidential information,
 including trade secrets, belonging to Gaussian, Inc.
  
 This software is provided under written license and may be
 used, copied, transmitted, or stored only in accord with that
 written license.
  
 The following legend is applicable only to US Government
 contracts under FAR:
  
                    RESTRICTED RIGHTS LEGEND
  
 Use, reproduction and disclosure by the US Government is
 subject to restrictions as set forth in subparagraphs (a)
 and (c) of the Commercial Computer Software - Restricted
 Rights clause in FAR 52.227-19.
  
 Gaussian, Inc.
 340 Quinnipiac St., Bldg. 40, Wallingford CT 06492
  
  
 ---------------------------------------------------------------
 Warning -- This program may not be used in any manner that
 competes with the business of Gaussian, Inc. or will provide
 assistance to any competitor of Gaussian, Inc.  The licensee
 of this program is prohibited from giving any competitor of
 Gaussian, Inc. access to this program.  By using this program,
 the user acknowledges that Gaussian, Inc. is engaged in the
 business of creating and licensing software in the field of
 computational chemistry and represents and warrants to the
 licensee that it is not a competitor of Gaussian, Inc. and that
 it will not use this program in any manner prohibited above.
 ---------------------------------------------------------------
  

 Cite this work as:
 Gaussian 09, Revision E.01,
 M. J. Frisch, G. W. Trucks, H. B. Schlegel, G. E. Scuseria, 
 M. A. Robb, J. R. Cheeseman, G. Scalmani, V. Barone, B. Mennucci, 
 G. A. Petersson, H. Nakatsuji, M. Caricato, X. Li, H. P. Hratchian, 
 A. F. Izmaylov, J. Bloino, G. Zheng, J. L. Sonnenberg, M. Hada, 
 M. Ehara, K. Toyota, R. Fukuda, J. Hasegawa, M. Ishida, T. Nakajima, 
 Y. Honda, O. Kitao, H. Nakai, T. Vreven, J. A. Montgomery, Jr., 
 J. E. Peralta, F. Ogliaro, M. Bearpark, J. J. Heyd, E. Brothers, 
 K. N. Kudin, V. N. Staroverov, T. Keith, R. Kobayashi, J. Normand, 
 K. Raghavachari, A. Rendell, J. C. Burant, S. S. Iyengar, J. Tomasi, 
 M. Cossi, N. Rega, J. M. Millam, M. Klene, J. E. Knox, J. B. Cross, 
 V. Bakken, C. Adamo, J. Jaramillo, R. Gomperts, R. E. Stratmann, 
 O. Yazyev, A. J. Austin, R. Cammi, C. Pomelli, J. W. Ochterski, 
 R. L. Martin, K. Morokuma, V. G. Zakrzewski, G. A. Voth, 
 P. Salvador, J. J. Dannenberg, S. Dapprich, A. D. Daniels, 
 O. Farkas, J. B. Foresman, J. V. Ortiz, J. Cioslowski, 
 and D. J. Fox, Gaussian, Inc., Wallingford CT, 2013.
 
 ******************************************
 Gaussian 09:  ES64L-G09RevE.01 30-Nov-2015
                18-May-2020 
 ******************************************
 %NProcShared=4
 Will use up to    4 processors via shared memory.
 ----------------------------
 # rhf/6-311++g** pop=nbo6del
 ----------------------------
 1/38=1,163=2/1;
 2/12=2,17=6,18=5,40=1/2;
 3/5=4,6=6,7=1111,11=1,16=1,25=1,30=1,116=1/1,2,3;
 4//1;
 5/5=2,38=5/2;
 6/7=2,8=2,9=2,10=2,28=1,40=12,113=1,114=1,124=2103/1,12(1);
 99/5=1,9=1/99;
 5/5=2,7=1,13=1,38=1,48=100000/2;
 6/7=2,8=2,9=2,10=2,28=1,40=3,113=1,114=1,124=2103/12(-1);
 99/5=1,9=1/99;
 --------------------------
 Butadiyne...rhf/6-311++g**
 --------------------------
 Symbolic Z-matrix:
 Charge =  0 Multiplicity = 1
 H                     0.        0.        2.93387 
 C                     0.        0.        1.87844 
 C                     0.        0.        0.69307 
 C                     0.        0.       -0.69307 
 C                     0.        0.       -1.87844 
 H                     0.        0.       -2.93387 
 
                          Input orientation:                          
 ---------------------------------------------------------------------
 Center     Atomic      Atomic             Coordinates (Angstroms)
 Number     Number       Type             X           Y           Z
 ---------------------------------------------------------------------
      1          1           0        0.000000    0.000000    2.933869
      2          6           0        0.000000    0.000000    1.878441
      3          6           0        0.000000    0.000000    0.693074
      4          6           0        0.000000    0.000000   -0.693074
      5          6           0        0.000000    0.000000   -1.878441
      6          1           0        0.000000    0.000000   -2.933869
 ---------------------------------------------------------------------
                    Distance matrix (angstroms):
                    1          2          3          4          5
     1  H    0.000000
     2  C    1.055428   0.000000
     3  C    2.240795   1.185367   0.000000
     4  C    3.626943   2.571515   1.386148   0.000000
     5  C    4.812310   3.756882   2.571515   1.185367   0.000000
     6  H    5.867738   4.812310   3.626943   2.240795   1.055428
                    6
     6  H    0.000000
 Stoichiometry    C4H2
 Framework group  D*H[C*(HCC.CCH)]
 Deg. of freedom     3
 Full point group                 D*H     NOp   8
 Largest Abelian subgroup         D2H     NOp   8
 Largest concise Abelian subgroup C2      NOp   2
                         Standard orientation:                         
 ---------------------------------------------------------------------
 Center     Atomic      Atomic             Coordinates (Angstroms)
 Number     Number       Type             X           Y           Z
 ---------------------------------------------------------------------
      1          1           0        0.000000    0.000000    2.933869
      2          6           0        0.000000    0.000000    1.878441
      3          6           0        0.000000    0.000000    0.693074
      4          6           0        0.000000    0.000000   -0.693074
      5          6           0        0.000000    0.000000   -1.878441
      6          1           0        0.000000    0.000000   -2.933869
 ---------------------------------------------------------------------
 Rotational constants (GHZ):      0.0000000      4.4501967      4.4501967
 Standard basis: 6-311++G(d,p) (5D, 7F)
 There are    29 symmetry adapted cartesian basis functions of AG  symmetry.
 There are     2 symmetry adapted cartesian basis functions of B1G symmetry.
 There are    11 symmetry adapted cartesian basis functions of B2G symmetry.
 There are    11 symmetry adapted cartesian basis functions of B3G symmetry.
 There are     2 symmetry adapted cartesian basis functions of AU  symmetry.
 There are    29 symmetry adapted cartesian basis functions of B1U symmetry.
 There are    11 symmetry adapted cartesian basis functions of B2U symmetry.
 There are    11 symmetry adapted cartesian basis functions of B3U symmetry.
 There are    27 symmetry adapted basis functions of AG  symmetry.
 There are     2 symmetry adapted basis functions of B1G symmetry.
 There are    11 symmetry adapted basis functions of B2G symmetry.
 There are    11 symmetry adapted basis functions of B3G symmetry.
 There are     2 symmetry adapted basis functions of AU  symmetry.
 There are    27 symmetry adapted basis functions of B1U symmetry.
 There are    11 symmetry adapted basis functions of B2U symmetry.
 There are    11 symmetry adapted basis functions of B3U symmetry.
   102 basis functions,   162 primitive gaussians,   106 cartesian basis functions
    13 alpha electrons       13 beta electrons
       nuclear repulsion energy        77.7843108854 Hartrees.
 NAtoms=    6 NActive=    6 NUniq=    3 SFac= 4.00D+00 NAtFMM=   60 NAOKFM=F Big=F
 Integral buffers will be    131072 words long.
 Raffenetti 1 integral format.
 Two-electron integral symmetry is turned on.
 One-electron integrals computed using PRISM.
 NBasis=   102 RedAO= T EigKep=  1.21D-06  NBF=    27     2    11    11     2    27    11    11
 NBsUse=   101 1.00D-06 EigRej=  6.34D-08 NBFU=    27     2    11    11     2    26    11    11
 ExpMin= 3.60D-02 ExpMax= 4.56D+03 ExpMxC= 6.82D+02 IAcc=3 IRadAn=         5 AccDes= 0.00D+00
 Harris functional with IExCor=  205 and IRadAn=       5 diagonalized for initial guess.
 HarFok:  IExCor=  205 AccDes= 0.00D+00 IRadAn=         5 IDoV= 1 UseB2=F ITyADJ=14
 ICtDFT=  3500011 ScaDFX=  1.000000  1.000000  1.000000  1.000000
 FoFCou: FMM=F IPFlag=           0 FMFlag=      100000 FMFlg1=           0
         NFxFlg=           0 DoJE=T BraDBF=F KetDBF=T FulRan=T
         wScrn=  0.000000 ICntrl=     500 IOpCl=  0 I1Cent=   200000004 NGrid=           0
         NMat0=    1 NMatS0=      1 NMatT0=    0 NMatD0=    1 NMtDS0=    0 NMtDT0=    0
 Petite list used in FoFCou.
 Initial guess orbital symmetries:
       Occupied  (SGU) (SGG) (SGG) (SGU) (SGG) (SGU) (SGG) (SGU)
                 (SGG) (PIU) (PIU) (PIG) (PIG)
       Virtual   (PIU) (PIU) (SGG) (PIG) (PIG) (SGU) (SGG) (PIU)
                 (PIU) (SGU) (SGU) (PIG) (PIG) (SGG) (PIU) (PIU)
                 (SGU) (SGG) (SGG) (PIG) (PIG) (SGU) (SGU) (SGG)
                 (SGG) (PIU) (PIU) (SGU) (PIG) (PIG) (SGG) (PIU)
                 (PIU) (PIG) (PIG) (SGU) (SGG) (SGU) (SGG) (SGG)
                 (PIU) (PIU) (SGU) (DLTG) (DLTG) (SGU) (DLTU) (DLTU)
                 (PIG) (PIG) (SGG) (DLTG) (DLTG) (PIU) (PIU) (SGU)
                 (DLTU) (DLTU) (PIG) (PIG) (SGG) (SGU) (PIU) (PIU)
                 (SGG) (PIG) (PIG) (PIU) (PIU) (SGG) (SGU) (SGU)
                 (PIG) (PIG) (PIU) (PIU) (PIG) (PIG) (SGG) (SGU)
                 (SGG) (SGG) (SGU) (SGU) (SGG) (SGU) (SGG) (SGU)
 The electronic state of the initial guess is 1-SGG.
 Keep R1 ints in memory in symmetry-blocked form, NReq=15810760.
 Requested convergence on RMS density matrix=1.00D-08 within 128 cycles.
 Requested convergence on MAX density matrix=1.00D-06.
 Requested convergence on             energy=1.00D-06.
 No special actions if energy rises.
 SCF Done:  E(RHF) =  -152.537635547     A.U. after   11 cycles
            NFock= 11  Conv=0.65D-08     -V/T= 2.0000

 **********************************************************************

            Population analysis using the SCF density.

 **********************************************************************

 Orbital symmetries:
       Occupied  (SGG) (SGU) (SGG) (SGU) (SGG) (SGU) (SGG) (SGU)
                 (SGG) (PIU) (PIU) (PIG) (PIG)
       Virtual   (SGG) (SGU) (PIU) (PIU) (SGG) (PIG) (PIG) (PIU)
                 (PIU) (SGU) (SGG) (SGU) (SGG) (PIU) (PIU) (PIG)
                 (PIG) (SGU) (SGG) (SGU) (PIG) (PIG) (SGG) (SGU)
                 (SGG) (SGU) (PIU) (PIU) (SGG) (PIG) (PIG) (PIU)
                 (PIU) (SGU) (SGG) (PIG) (PIG) (SGU) (SGG) (SGU)
                 (SGG) (PIU) (PIU) (DLTG) (DLTG) (SGU) (DLTU) (DLTU)
                 (SGG) (PIG) (PIG) (SGU) (DLTG) (DLTG) (PIU) (PIU)
                 (DLTU) (DLTU) (PIG) (PIG) (SGG) (SGU) (PIU) (PIU)
                 (SGG) (SGU) (SGG) (PIG) (PIG) (SGU) (PIU) (PIU)
                 (PIG) (PIG) (PIU) (PIU) (SGG) (PIG) (PIG) (SGU)
                 (SGG) (SGG) (SGU) (SGU) (SGG) (SGU) (SGG) (SGU)
 The electronic state is 1-SGG.
 Alpha  occ. eigenvalues --  -11.26393 -11.26285 -11.25230 -11.25226  -1.09675
 Alpha  occ. eigenvalues --   -1.03220  -0.84707  -0.73646  -0.70915  -0.49557
 Alpha  occ. eigenvalues --   -0.49557  -0.37857  -0.37857
 Alpha virt. eigenvalues --    0.03808   0.04386   0.08903   0.08903   0.10320
 Alpha virt. eigenvalues --    0.12014   0.12014   0.13695   0.13695   0.14660
 Alpha virt. eigenvalues --    0.17755   0.18197   0.20659   0.21202   0.21202
 Alpha virt. eigenvalues --    0.25011   0.25011   0.31088   0.31590   0.34586
 Alpha virt. eigenvalues --    0.35713   0.35713   0.41367   0.48082   0.62411
 Alpha virt. eigenvalues --    0.63522   0.68134   0.68134   0.73398   0.75343
 Alpha virt. eigenvalues --    0.75343   0.83146   0.83146   0.83813   0.85942
 Alpha virt. eigenvalues --    0.90686   0.90686   1.02112   1.05783   1.24585
 Alpha virt. eigenvalues --    1.29295   1.29453   1.29453   1.32005   1.32005
 Alpha virt. eigenvalues --    1.42860   1.43954   1.43954   1.49226   1.58595
 Alpha virt. eigenvalues --    1.58595   1.74864   1.75189   1.75189   1.79901
 Alpha virt. eigenvalues --    1.79901   1.97360   1.97360   2.15719   2.15719
 Alpha virt. eigenvalues --    2.18653   2.35687   2.58213   2.58213   2.81181
 Alpha virt. eigenvalues --    2.94935   2.96440   3.03473   3.03473   3.08073
 Alpha virt. eigenvalues --    3.09601   3.09601   3.33553   3.33553   3.36803
 Alpha virt. eigenvalues --    3.36803   3.40457   3.45340   3.45340   3.68819
 Alpha virt. eigenvalues --    3.84981   4.05723   4.16525   4.58269  24.54692
 Alpha virt. eigenvalues --   24.97314  26.10402  26.70113
          Condensed to atoms (all electrons):
               1          2          3          4          5          6
     1  H    0.406980   0.931115  -0.532719  -0.012755   0.054374   0.000397
     2  C    0.931115  27.498333 -20.644865  -6.843303   7.877385   0.054374
     3  C   -0.532719 -20.644865  25.172415   6.140795  -6.843303  -0.012755
     4  C   -0.012755  -6.843303   6.140795  25.172415 -20.644865  -0.532719
     5  C    0.054374   7.877385  -6.843303 -20.644865  27.498333   0.931115
     6  H    0.000397   0.054374  -0.012755  -0.532719   0.931115   0.406980
 Mulliken charges:
               1
     1  H    0.152607
     2  C   -2.873039
     3  C    2.720432
     4  C    2.720432
     5  C   -2.873039
     6  H    0.152607
 Sum of Mulliken charges =   0.00000
 Mulliken charges with hydrogens summed into heavy atoms:
               1
     2  C   -2.720432
     3  C    2.720432
     4  C    2.720432
     5  C   -2.720432
 Electronic spatial extent (au):  <R**2>=            279.1980
 Charge=             -0.0000 electrons
 Dipole moment (field-independent basis, Debye):
    X=             -0.0000    Y=             -0.0000    Z=              0.0000  Tot=              0.0000
 Quadrupole moment (field-independent basis, Debye-Ang):
   XX=            -25.2074   YY=            -25.2074   ZZ=            -11.3617
   XY=             -0.0000   XZ=              0.0000   YZ=              0.0000
 Traceless Quadrupole moment (field-independent basis, Debye-Ang):
   XX=             -4.6152   YY=             -4.6152   ZZ=              9.2305
   XY=             -0.0000   XZ=              0.0000   YZ=              0.0000
 Octapole moment (field-independent basis, Debye-Ang**2):
  XXX=             -0.0000  YYY=              0.0000  ZZZ=             -0.0000  XYY=             -0.0000
  XXY=             -0.0000  XXZ=             -0.0000  XZZ=             -0.0000  YZZ=              0.0000
  YYZ=             -0.0000  XYZ=              0.0000
 Hexadecapole moment (field-independent basis, Debye-Ang**3):
 XXXX=            -30.2207 YYYY=            -30.2207 ZZZZ=           -196.8788 XXXY=             -0.0000
 XXXZ=              0.0000 YYYX=             -0.0000 YYYZ=              0.0000 ZZZX=              0.0000
 ZZZY=              0.0000 XXYY=            -10.0736 XXZZ=            -69.1552 YYZZ=            -69.1552
 XXYZ=              0.0000 YYXZ=              0.0000 ZZXY=             -0.0000
 N-N= 7.778431088545D+01 E-N=-5.107733451804D+02  KE= 1.525319648814D+02
 Symmetry AG   KE= 7.353528720032D+01
 Symmetry B1G  KE= 6.861428308141D-34
 Symmetry B2G  KE= 2.268060215667D+00
 Symmetry B3G  KE= 2.268060215667D+00
 Symmetry AU   KE= 7.998341822081D-34
 Symmetry B1U  KE= 7.034822102685D+01
 Symmetry B2U  KE= 2.056168111449D+00
 Symmetry B3U  KE= 2.056168111449D+00
 Running external command "gaunbo6 R"
         input file       "/scr/ericg/c4h2/Gau-19835.EIn"
         output file      "/scr/ericg/c4h2/Gau-19835.EOu"
         message file     "/scr/ericg/c4h2/Gau-19835.EMs"
         fchk file        "/scr/ericg/c4h2/Gau-19835.EFC"
         mat. el file     "/scr/ericg/c4h2/Gau-19835.EUF"

 Writing Wrt12E file "/scr/ericg/c4h2/Gau-19835.EUF"
 Gaussian matrix elements                                         Version   1 NLab= 7 Len12L=8 Len4L=8
 Write GAUSSIAN SCALARS               from file   501 offset           0 to matrix element file.
 Write OVERLAP                        from file   514 offset           0 to matrix element file.
 Write CORE HAMILTONIAN ALPHA         from file   515 offset           0 to matrix element file.
 Write CORE HAMILTONIAN BETA          from file   515 offset        5253 to matrix element file.
 Write KINETIC ENERGY                 from file   516 offset           0 to matrix element file.
 Write ORTHOGONAL BASIS               from file   685 offset           0 to matrix element file.
 Write DIPOLE INTEGRALS               from file   518 offset           0 to matrix element file.
 Array DIP VEL INTEGRALS               on  file    572 does not exist.
 Array R X DEL INTEGRALS               on  file    572 does not exist.
 Write ALPHA ORBITAL ENERGIES         from file     0 offset           0 to matrix element file.
 Write ALPHA MO COEFFICIENTS          from file 10524 offset           0 to matrix element file.
 Write ALPHA DENSITY MATRIX           from file     0 offset           0 to matrix element file.
 Write ALPHA SCF DENSITY MATRIX       from file 10528 offset           0 to matrix element file.
 Write ALPHA FOCK MATRIX              from file 10536 offset           0 to matrix element file.
 No 2e integrals to process.
 Perform NBO analysis...executing G09NBO...

 *********************************** NBO 7.0 ***********************************
             N A T U R A L   A T O M I C   O R B I T A L   A N D
          N A T U R A L   B O N D   O R B I T A L   A N A L Y S I S
 ************************ development version (D000000) ************************
  (c) Copyright 1996-2020 Board of Regents of the University of Wisconsin System
      on behalf of the Theoretical Chemistry Institute.  All rights reserved.

          Cite this program [NBO 7.0.9 (21-May-2020)] as:

          NBO 7.0.  E. D. Glendening, J. K. Badenhoop, A. E. Reed,
          J. E. Carpenter, J. A. Bohmann, C. M. Morales, P. Karafiloglou,
          C. R. Landis, and F. Weinhold, Theoretical Chemistry Institute,
          University of Wisconsin, Madison, WI (2018)

 Filename set to /scr/ericg/c4h2/Gau-19835

 Job title: Butadiyne...rhf/6-311++g**

 Interatomic linear dependence detected; s-type subshell on  C  2 discarded
 Interatomic linear dependence detected; s-type subshell on  C  5 discarded
 FIXDM: density matrix trace differs from integer value by -0.00006e; fixed


 NATURAL POPULATIONS:  Natural atomic orbital occupancies

  NAO Atom No lang   Type(AO)    Occupancy      Energy
 -------------------------------------------------------
   1    H  1  s      Val( 1s)     0.77123       0.14674
   2    H  1  s      Ryd( 4s)     0.00070       2.23862
   3    H  1  s      Ryd( 2s)     0.00010       0.95957
   4    H  1  s      Ryd( 3s)     0.00000       1.19397
   5    H  1  px     Ryd( 2p)     0.00010       1.90174
   6    H  1  py     Ryd( 2p)     0.00010       1.90174
   7    H  1  pz     Ryd( 2p)     0.00093       2.91191

   8    C  2  s      Cor( 1s)     2.00000     -11.25256
   9    C  2  s      Val( 2s)     0.96878      -0.04605
  10    C  2  s      Ryd( 3s)     0.00034       1.31441
  11    C  2  s      Ryd( 4s)     0.00001      16.78095
  12    C  2  px     Val( 2p)     0.96552      -0.05741
  13    C  2  px     Ryd( 3p)     0.00057       0.45796
  14    C  2  px     Ryd( 4p)     0.00004       1.01065
  15    C  2  px     Ryd( 5p)     0.00001       2.76914
  16    C  2  py     Val( 2p)     0.96552      -0.05741
  17    C  2  py     Ryd( 3p)     0.00057       0.45796
  18    C  2  py     Ryd( 4p)     0.00004       1.01065
  19    C  2  py     Ryd( 5p)     0.00001       2.76914
  20    C  2  pz     Val( 2p)     1.21664       0.05868
  21    C  2  pz     Ryd( 3p)     0.00029       0.90787
  22    C  2  pz     Ryd( 4p)     0.00031       2.30376
  23    C  2  pz     Ryd( 5p)     0.00019       2.83306
  24    C  2  dxy    Ryd( 3d)     0.00000       1.61953
  25    C  2  dxz    Ryd( 3d)     0.00180       2.14600
  26    C  2  dyz    Ryd( 3d)     0.00180       2.14600
  27    C  2  dx2y2  Ryd( 3d)     0.00000       1.61953
  28    C  2  dz2    Ryd( 3d)     0.00253       3.59694

  29    C  3  s      Cor( 1s)     2.00000     -11.26285
  30    C  3  s      Val( 2s)     0.86174       0.06683
  31    C  3  s      Ryd( 3s)     0.00250       1.11346
  32    C  3  s      Ryd( 4s)     0.00057       5.52002
  33    C  3  s      Ryd( 5s)     0.00000      19.74776
  34    C  3  px     Val( 2p)     1.02898      -0.05360
  35    C  3  px     Ryd( 3p)     0.00168       0.62335
  36    C  3  px     Ryd( 4p)     0.00001       1.92860
  37    C  3  px     Ryd( 5p)     0.00001       1.57019
  38    C  3  py     Val( 2p)     1.02898      -0.05360
  39    C  3  py     Ryd( 3p)     0.00168       0.62335
  40    C  3  py     Ryd( 4p)     0.00001       1.92860
  41    C  3  py     Ryd( 5p)     0.00001       1.57019
  42    C  3  pz     Val( 2p)     1.16933       0.06985
  43    C  3  pz     Ryd( 3p)     0.00106       1.11093
  44    C  3  pz     Ryd( 4p)     0.00124       3.87643
  45    C  3  pz     Ryd( 5p)     0.00004       5.94134
  46    C  3  dxy    Ryd( 3d)     0.00000       1.62301
  47    C  3  dxz    Ryd( 3d)     0.00130       2.28881
  48    C  3  dyz    Ryd( 3d)     0.00130       2.28881
  49    C  3  dx2y2  Ryd( 3d)     0.00000       1.62301
  50    C  3  dz2    Ryd( 3d)     0.00149       3.93476

  51    C  4  s      Cor( 1s)     2.00000     -11.26285
  52    C  4  s      Val( 2s)     0.86174       0.06683
  53    C  4  s      Ryd( 3s)     0.00250       1.11346
  54    C  4  s      Ryd( 4s)     0.00057       5.52002
  55    C  4  s      Ryd( 5s)     0.00000      19.74776
  56    C  4  px     Val( 2p)     1.02898      -0.05360
  57    C  4  px     Ryd( 3p)     0.00168       0.62335
  58    C  4  px     Ryd( 4p)     0.00001       1.92860
  59    C  4  px     Ryd( 5p)     0.00001       1.57019
  60    C  4  py     Val( 2p)     1.02898      -0.05360
  61    C  4  py     Ryd( 3p)     0.00168       0.62335
  62    C  4  py     Ryd( 4p)     0.00001       1.92860
  63    C  4  py     Ryd( 5p)     0.00001       1.57019
  64    C  4  pz     Val( 2p)     1.16933       0.06985
  65    C  4  pz     Ryd( 3p)     0.00106       1.11093
  66    C  4  pz     Ryd( 4p)     0.00124       3.87643
  67    C  4  pz     Ryd( 5p)     0.00004       5.94135
  68    C  4  dxy    Ryd( 3d)     0.00000       1.62301
  69    C  4  dxz    Ryd( 3d)     0.00130       2.28881
  70    C  4  dyz    Ryd( 3d)     0.00130       2.28881
  71    C  4  dx2y2  Ryd( 3d)     0.00000       1.62301
  72    C  4  dz2    Ryd( 3d)     0.00149       3.93476

  73    C  5  s      Cor( 1s)     2.00000     -11.25256
  74    C  5  s      Val( 2s)     0.96878      -0.04605
  75    C  5  s      Ryd( 3s)     0.00034       1.31441
  76    C  5  s      Ryd( 4s)     0.00001      16.78095
  77    C  5  px     Val( 2p)     0.96552      -0.05741
  78    C  5  px     Ryd( 3p)     0.00057       0.45796
  79    C  5  px     Ryd( 4p)     0.00004       1.01065
  80    C  5  px     Ryd( 5p)     0.00001       2.76914
  81    C  5  py     Val( 2p)     0.96552      -0.05741
  82    C  5  py     Ryd( 3p)     0.00057       0.45796
  83    C  5  py     Ryd( 4p)     0.00004       1.01065
  84    C  5  py     Ryd( 5p)     0.00001       2.76914
  85    C  5  pz     Val( 2p)     1.21664       0.05868
  86    C  5  pz     Ryd( 3p)     0.00029       0.90787
  87    C  5  pz     Ryd( 4p)     0.00031       2.30376
  88    C  5  pz     Ryd( 5p)     0.00019       2.83306
  89    C  5  dxy    Ryd( 3d)     0.00000       1.61953
  90    C  5  dxz    Ryd( 3d)     0.00180       2.14600
  91    C  5  dyz    Ryd( 3d)     0.00180       2.14600
  92    C  5  dx2y2  Ryd( 3d)     0.00000       1.61953
  93    C  5  dz2    Ryd( 3d)     0.00253       3.59694

  94    H  6  s      Val( 1s)     0.77123       0.14674
  95    H  6  s      Ryd( 4s)     0.00070       2.23862
  96    H  6  s      Ryd( 2s)     0.00010       0.95957
  97    H  6  s      Ryd( 3s)     0.00000       1.19397
  98    H  6  px     Ryd( 2p)     0.00010       1.90174
  99    H  6  py     Ryd( 2p)     0.00010       1.90174
 100    H  6  pz     Ryd( 2p)     0.00093       2.91191


 Summary of Natural Population Analysis:

                                     Natural Population
             Natural    ---------------------------------------------
  Atom No    Charge        Core      Valence    Rydberg      Total
 --------------------------------------------------------------------
    H  1    0.22684      0.00000     0.77123    0.00193     0.77316
    C  2   -0.12493      2.00000     4.11646    0.00848     6.12493
    C  3   -0.10190      2.00000     4.08902    0.01289     6.10190
    C  4   -0.10190      2.00000     4.08902    0.01289     6.10190
    C  5   -0.12493      2.00000     4.11646    0.00848     6.12493
    H  6    0.22684      0.00000     0.77123    0.00193     0.77316
 ====================================================================
 * Total *  0.00000      7.99999    17.95342    0.04658    26.00000

                                 Natural Population
 ---------------------------------------------------------
   Core                       7.99999 ( 99.9999% of    8)
   Valence                   17.95342 ( 99.7412% of   18)
   Natural Minimal Basis     25.95342 ( 99.8208% of   26)
   Natural Rydberg Basis      0.04658 (  0.1792% of   26)
 ---------------------------------------------------------

    Atom No         Natural Electron Configuration
 ----------------------------------------------------------------------------
      H  1            1s( 0.77)
      C  2      [core]2s( 0.97)2p( 3.15)3d( 0.01)
      C  3      [core]2s( 0.86)2p( 3.23)
      C  4      [core]2s( 0.86)2p( 3.23)
      C  5      [core]2s( 0.97)2p( 3.15)3d( 0.01)
      H  6            1s( 0.77)


 NATURAL BOND ORBITAL ANALYSIS:

                            Occupancies       Lewis Structure    Low   High
         Max    Occ     -------------------  -----------------   occ   occ
  Cycle  Ctr   Thresh    Lewis   non-Lewis     CR  BD  nC  LP    (L)   (NL)
 ============================================================================
    1     2     1.90    25.74615   0.25385      4   9   0   0     0      0
 ----------------------------------------------------------------------------

 Structure accepted: No low occupancy Lewis orbitals

 -------------------------------------------------------
   Core                      7.99999 (100.000% of   8)
   Valence Lewis            17.74616 ( 98.590% of  18)
  ==================      =============================
   Total Lewis              25.74615 ( 99.024% of  26)
  -----------------------------------------------------
   Valence non-Lewis         0.23343 (  0.898% of  26)
   Rydberg non-Lewis         0.02042 (  0.079% of  26)
  ==================      =============================
   Total non-Lewis           0.25385 (  0.976% of  26)
 -------------------------------------------------------


     (Occupancy)   Bond orbital / Coefficients / Hybrids
 ------------------ Lewis ------------------------------------------------------
   1. (2.00000) CR ( 1) C  2            s(100.00%)
                                         1.0000  0.0000  0.0000  0.0000  0.0000
                                         0.0000  0.0000  0.0000  0.0000  0.0000
                                         0.0000  0.0000  0.0000  0.0000  0.0000
                                         0.0000  0.0000  0.0000  0.0000  0.0000
                                         0.0000
   2. (2.00000) CR ( 1) C  3            s(100.00%)
                                         1.0000  0.0000  0.0000  0.0000  0.0000
                                         0.0000  0.0000  0.0000  0.0000  0.0000
                                         0.0000  0.0000  0.0000  0.0000  0.0000
                                         0.0000  0.0000  0.0000  0.0000  0.0000
                                         0.0000  0.0000
   3. (2.00000) CR ( 1) C  4            s(100.00%)
                                         1.0000  0.0000  0.0000  0.0000  0.0000
                                         0.0000  0.0000  0.0000  0.0000  0.0000
                                         0.0000  0.0000  0.0000  0.0000  0.0000
                                         0.0000  0.0000  0.0000  0.0000  0.0000
                                         0.0000  0.0000
   4. (2.00000) CR ( 1) C  5            s(100.00%)
                                         1.0000  0.0000  0.0000  0.0000  0.0000
                                         0.0000  0.0000  0.0000  0.0000  0.0000
                                         0.0000  0.0000  0.0000  0.0000  0.0000
                                         0.0000  0.0000  0.0000  0.0000  0.0000
                                         0.0000
   5. (1.98863) BD ( 1) H  1- C  2
               ( 38.61%)   0.6214* H  1 s( 99.91%)p 0.00(  0.09%)
                                         0.9995 -0.0038  0.0003  0.0000  0.0000
                                         0.0000 -0.0300
               ( 61.39%)   0.7835* C  2 s( 46.26%)p 1.16( 53.63%)d 0.00(  0.10%)
                                         0.0000  0.6802  0.0040  0.0008  0.0000
                                         0.0000  0.0000  0.0000  0.0000  0.0000
                                         0.0000  0.0000  0.7322  0.0133  0.0010
                                        -0.0029  0.0000  0.0000  0.0000  0.0000
                                         0.0322
   6. (1.97979) BD ( 1) C  2- C  3
               ( 48.28%)   0.6948* C  2 s( 53.45%)p 0.87( 46.39%)d 0.00(  0.16%)
                                         0.0000  0.7310 -0.0071 -0.0007  0.0000
                                         0.0000  0.0000  0.0000  0.0000  0.0000
                                         0.0000  0.0000 -0.6809  0.0057 -0.0128
                                        -0.0086  0.0000  0.0000  0.0000  0.0000
                                         0.0401
               ( 51.72%)   0.7192* C  3 s( 53.83%)p 0.86( 46.09%)d 0.00(  0.09%)
                                         0.0000  0.7333 -0.0199  0.0103 -0.0003
                                         0.0000  0.0000  0.0000  0.0000  0.0000
                                         0.0000  0.0000  0.0000  0.6780  0.0320
                                        -0.0129 -0.0036  0.0000  0.0000  0.0000
                                         0.0000  0.0292
   7. (1.95843) BD ( 2) C  2- C  3
               ( 48.37%)   0.6955* C  2 s(  0.00%)p 1.00( 99.81%)d 0.00(  0.19%)
                                         0.0000  0.0000  0.0000  0.0000  0.6366
                                        -0.0009 -0.0040 -0.0005  0.7700 -0.0011
                                        -0.0048 -0.0006  0.0000  0.0000  0.0000
                                         0.0000  0.0000 -0.0277 -0.0335  0.0000
                                         0.0000
               ( 51.63%)   0.7185* C  3 s(  0.00%)p 1.00( 99.90%)d 0.00(  0.10%)
                                         0.0000  0.0000  0.0000  0.0000  0.0000
                                         0.6368 -0.0109 -0.0008  0.0006  0.7702
                                        -0.0132 -0.0009  0.0008  0.0000  0.0000
                                         0.0000  0.0000  0.0000  0.0201  0.0244
                                         0.0000  0.0000
   8. (1.95843) BD ( 3) C  2- C  3
               ( 48.37%)   0.6955* C  2 s(  0.00%)p 1.00( 99.81%)d 0.00(  0.19%)
                                         0.0000  0.0000  0.0000  0.0000  0.7700
                                        -0.0011 -0.0048 -0.0006 -0.6366  0.0009
                                         0.0040  0.0005  0.0000  0.0000  0.0000
                                         0.0000  0.0000 -0.0335  0.0277  0.0000
                                         0.0000
               ( 51.63%)   0.7185* C  3 s(  0.00%)p 1.00( 99.90%)d 0.00(  0.10%)
                                         0.0000  0.0000  0.0000  0.0000  0.0000
                                         0.7702 -0.0132 -0.0009  0.0008 -0.6368
                                         0.0109  0.0008 -0.0006  0.0000  0.0000
                                         0.0000  0.0000  0.0000  0.0244 -0.0201
                                         0.0000  0.0000
   9. (1.97558) BD ( 1) C  3- C  4
               ( 50.00%)   0.7071* C  3 s( 46.01%)p 1.17( 53.91%)d 0.00(  0.08%)
                                         0.0000  0.6780  0.0151 -0.0144  0.0004
                                         0.0000  0.0000  0.0000  0.0000  0.0000
                                         0.0000  0.0000  0.0000 -0.7342  0.0023
                                        -0.0086 -0.0010  0.0000  0.0000  0.0000
                                         0.0000  0.0285
               ( 50.00%)   0.7071* C  4 s( 46.01%)p 1.17( 53.91%)d 0.00(  0.08%)
                                         0.0000  0.6780  0.0151 -0.0144  0.0004
                                         0.0000  0.0000  0.0000  0.0000  0.0000
                                         0.0000  0.0000  0.0000  0.7342 -0.0023
                                         0.0086  0.0010  0.0000  0.0000  0.0000
                                         0.0000  0.0285
  10. (1.97979) BD ( 1) C  4- C  5
               ( 51.72%)   0.7192* C  4 s( 53.83%)p 0.86( 46.09%)d 0.00(  0.09%)
                                         0.0000  0.7333 -0.0199  0.0103 -0.0003
                                         0.0000  0.0000  0.0000  0.0000  0.0000
                                         0.0000  0.0000  0.0000 -0.6780 -0.0320
                                         0.0129  0.0036  0.0000  0.0000  0.0000
                                         0.0000  0.0292
               ( 48.28%)   0.6948* C  5 s( 53.45%)p 0.87( 46.39%)d 0.00(  0.16%)
                                         0.0000  0.7310 -0.0071 -0.0007  0.0000
                                         0.0000  0.0000  0.0000  0.0000  0.0000
                                         0.0000  0.0000  0.6809 -0.0057  0.0128
                                         0.0086  0.0000  0.0000  0.0000  0.0000
                                         0.0401
  11. (1.95843) BD ( 2) C  4- C  5
               ( 51.63%)   0.7185* C  4 s(  0.00%)p 1.00( 99.90%)d 0.00(  0.10%)
                                         0.0000  0.0000  0.0000  0.0000  0.0000
                                        -0.5685  0.0098  0.0007 -0.0006  0.8219
                                        -0.0141 -0.0010  0.0008  0.0000  0.0000
                                         0.0000  0.0000  0.0000  0.0180 -0.0260
                                         0.0000  0.0000
               ( 48.37%)   0.6955* C  5 s(  0.00%)p 1.00( 99.81%)d 0.00(  0.19%)
                                         0.0000  0.0000  0.0000  0.0000 -0.5683
                                         0.0008  0.0035  0.0004  0.8216 -0.0012
                                        -0.0051 -0.0006  0.0000  0.0000  0.0000
                                         0.0000  0.0000 -0.0247  0.0357  0.0000
                                         0.0000
  12. (1.95843) BD ( 3) C  4- C  5
               ( 51.63%)   0.7185* C  4 s(  0.00%)p 1.00( 99.90%)d 0.00(  0.10%)
                                         0.0000  0.0000  0.0000  0.0000  0.0000
                                         0.8219 -0.0141 -0.0010  0.0008  0.5685
                                        -0.0098 -0.0007  0.0006  0.0000  0.0000
                                         0.0000  0.0000  0.0000 -0.0260 -0.0180
                                         0.0000  0.0000
               ( 48.37%)   0.6955* C  5 s(  0.00%)p 1.00( 99.81%)d 0.00(  0.19%)
                                         0.0000  0.0000  0.0000  0.0000  0.8216
                                        -0.0012 -0.0051 -0.0006  0.5683 -0.0008
                                        -0.0035 -0.0004  0.0000  0.0000  0.0000
                                         0.0000  0.0000  0.0357  0.0247  0.0000
                                         0.0000
  13. (1.98863) BD ( 1) C  5- H  6
               ( 61.39%)   0.7835* C  5 s( 46.26%)p 1.16( 53.63%)d 0.00(  0.10%)
                                         0.0000  0.6802  0.0040  0.0008  0.0000
                                         0.0000  0.0000  0.0000  0.0000  0.0000
                                         0.0000  0.0000 -0.7322 -0.0133 -0.0010
                                         0.0029  0.0000  0.0000  0.0000  0.0000
                                         0.0322
               ( 38.61%)   0.6214* H  6 s( 99.91%)p 0.00(  0.09%)
                                         0.9995 -0.0038  0.0003  0.0000  0.0000
                                         0.0000  0.0300
 ---------------- non-Lewis ----------------------------------------------------
  14. (0.00676) BD*( 1) H  1- C  2
               ( 61.39%)   0.7835* H  1 s( 99.91%)p 0.00(  0.09%)
                                         0.9995 -0.0038  0.0003  0.0000  0.0000
                                         0.0000 -0.0300
               ( 38.61%)  -0.6214* C  2 s( 46.26%)p 1.16( 53.63%)d 0.00(  0.10%)
                                         0.0000  0.6802  0.0040  0.0008  0.0000
                                         0.0000  0.0000  0.0000  0.0000  0.0000
                                         0.0000  0.0000  0.7322  0.0133  0.0010
                                        -0.0029  0.0000  0.0000  0.0000  0.0000
                                         0.0322
  15. (0.01800) BD*( 1) C  2- C  3
               ( 51.72%)   0.7192* C  2 s( 53.45%)p 0.87( 46.39%)d 0.00(  0.16%)
                                         0.0000  0.7310 -0.0071 -0.0007  0.0000
                                         0.0000  0.0000  0.0000  0.0000  0.0000
                                         0.0000  0.0000 -0.6809  0.0057 -0.0128
                                        -0.0086  0.0000  0.0000  0.0000  0.0000
                                         0.0401
               ( 48.28%)  -0.6948* C  3 s( 53.83%)p 0.86( 46.09%)d 0.00(  0.09%)
                                         0.0000  0.7333 -0.0199  0.0103 -0.0003
                                         0.0000  0.0000  0.0000  0.0000  0.0000
                                         0.0000  0.0000  0.0000  0.6780  0.0320
                                        -0.0129 -0.0036  0.0000  0.0000  0.0000
                                         0.0000  0.0292
  16. (0.03886) BD*( 2) C  2- C  3
               ( 51.63%)   0.7185* C  2 s(  0.00%)p 1.00( 99.81%)d 0.00(  0.19%)
                                         0.0000  0.0000  0.0000  0.0000  0.6366
                                        -0.0009 -0.0040 -0.0005  0.7700 -0.0011
                                        -0.0048 -0.0006  0.0000  0.0000  0.0000
                                         0.0000  0.0000 -0.0277 -0.0335  0.0000
                                         0.0000
               ( 48.37%)  -0.6955* C  3 s(  0.00%)p 1.00( 99.90%)d 0.00(  0.10%)
                                         0.0000  0.0000  0.0000  0.0000  0.0000
                                         0.6368 -0.0109 -0.0008  0.0006  0.7702
                                        -0.0132 -0.0009  0.0008  0.0000  0.0000
                                         0.0000  0.0000  0.0000  0.0201  0.0244
                                         0.0000  0.0000
  17. (0.03886) BD*( 3) C  2- C  3
               ( 51.63%)   0.7185* C  2 s(  0.00%)p 1.00( 99.81%)d 0.00(  0.19%)
                                         0.0000  0.0000  0.0000  0.0000  0.7700
                                        -0.0011 -0.0048 -0.0006 -0.6366  0.0009
                                         0.0040  0.0005  0.0000  0.0000  0.0000
                                         0.0000  0.0000 -0.0335  0.0277  0.0000
                                         0.0000
               ( 48.37%)  -0.6955* C  3 s(  0.00%)p 1.00( 99.90%)d 0.00(  0.10%)
                                         0.0000  0.0000  0.0000  0.0000  0.0000
                                         0.7702 -0.0132 -0.0009  0.0008 -0.6368
                                         0.0109  0.0008 -0.0006  0.0000  0.0000
                                         0.0000  0.0000  0.0000  0.0244 -0.0201
                                         0.0000  0.0000
  18. (0.02845) BD*( 1) C  3- C  4
               ( 50.00%)   0.7071* C  3 s( 46.01%)p 1.17( 53.91%)d 0.00(  0.08%)
                                         0.0000  0.6780  0.0151 -0.0144  0.0004
                                         0.0000  0.0000  0.0000  0.0000  0.0000
                                         0.0000  0.0000  0.0000 -0.7342  0.0023
                                        -0.0086 -0.0010  0.0000  0.0000  0.0000
                                         0.0000  0.0285
               ( 50.00%)  -0.7071* C  4 s( 46.01%)p 1.17( 53.91%)d 0.00(  0.08%)
                                         0.0000  0.6780  0.0151 -0.0144  0.0004
                                         0.0000  0.0000  0.0000  0.0000  0.0000
                                         0.0000  0.0000  0.0000  0.7342 -0.0023
                                         0.0086  0.0010  0.0000  0.0000  0.0000
                                         0.0000  0.0285
  19. (0.01800) BD*( 1) C  4- C  5
               ( 48.28%)   0.6948* C  4 s( 53.83%)p 0.86( 46.09%)d 0.00(  0.09%)
                                         0.0000 -0.7333  0.0199 -0.0103  0.0003
                                         0.0000  0.0000  0.0000  0.0000  0.0000
                                         0.0000  0.0000  0.0000  0.6780  0.0320
                                        -0.0129 -0.0036  0.0000  0.0000  0.0000
                                         0.0000 -0.0292
               ( 51.72%)  -0.7192* C  5 s( 53.45%)p 0.87( 46.39%)d 0.00(  0.16%)
                                         0.0000 -0.7310  0.0071  0.0007  0.0000
                                         0.0000  0.0000  0.0000  0.0000  0.0000
                                         0.0000  0.0000 -0.6809  0.0057 -0.0128
                                        -0.0086  0.0000  0.0000  0.0000  0.0000
                                        -0.0401
  20. (0.03886) BD*( 2) C  4- C  5
               ( 48.37%)   0.6955* C  4 s(  0.00%)p 1.00( 99.90%)d 0.00(  0.10%)
                                         0.0000  0.0000  0.0000  0.0000  0.0000
                                         0.5685 -0.0098 -0.0007  0.0006 -0.8219
                                         0.0141  0.0010 -0.0008  0.0000  0.0000
                                         0.0000  0.0000  0.0000 -0.0180  0.0260
                                         0.0000  0.0000
               ( 51.63%)  -0.7185* C  5 s(  0.00%)p 1.00( 99.81%)d 0.00(  0.19%)
                                         0.0000  0.0000  0.0000  0.0000  0.5683
                                        -0.0008 -0.0035 -0.0004 -0.8216  0.0012
                                         0.0051  0.0006  0.0000  0.0000  0.0000
                                         0.0000  0.0000  0.0247 -0.0357  0.0000
                                         0.0000
  21. (0.03886) BD*( 3) C  4- C  5
               ( 48.37%)   0.6955* C  4 s(  0.00%)p 1.00( 99.90%)d 0.00(  0.10%)
                                         0.0000  0.0000  0.0000  0.0000  0.0000
                                        -0.8219  0.0141  0.0010 -0.0008 -0.5685
                                         0.0098  0.0007 -0.0006  0.0000  0.0000
                                         0.0000  0.0000  0.0000  0.0260  0.0180
                                         0.0000  0.0000
               ( 51.63%)  -0.7185* C  5 s(  0.00%)p 1.00( 99.81%)d 0.00(  0.19%)
                                         0.0000  0.0000  0.0000  0.0000 -0.8216
                                         0.0012  0.0051  0.0006 -0.5683  0.0008
                                         0.0035  0.0004  0.0000  0.0000  0.0000
                                         0.0000  0.0000 -0.0357 -0.0247  0.0000
                                         0.0000
  22. (0.00676) BD*( 1) C  5- H  6
               ( 38.61%)   0.6214* C  5 s( 46.26%)p 1.16( 53.63%)d 0.00(  0.10%)
                                         0.0000 -0.6802 -0.0040 -0.0008  0.0000
                                         0.0000  0.0000  0.0000  0.0000  0.0000
                                         0.0000  0.0000  0.7322  0.0133  0.0010
                                        -0.0029  0.0000  0.0000  0.0000  0.0000
                                        -0.0322
               ( 61.39%)  -0.7835* H  6 s( 99.91%)p 0.00(  0.09%)
                                        -0.9995  0.0038 -0.0003  0.0000  0.0000
                                         0.0000 -0.0300
  23. (0.00083) RY ( 1) H  1            s( 84.79%)p 0.18( 15.21%)
                                        -0.0082  0.9201 -0.0344 -0.0006  0.0000
                                         0.0000 -0.3900
  24. (0.00013) RY ( 2) H  1            s( 78.47%)p 0.27( 21.53%)
                                         0.0146  0.2288  0.8556  0.0048  0.0000
                                         0.0000  0.4640
  25. (0.00010) RY ( 3) H  1            s(  0.00%)p 1.00(100.00%)
  26. (0.00010) RY ( 4) H  1            s(  0.00%)p 1.00(100.00%)
  27. (0.00000) RY ( 5) H  1            s( 94.96%)p 0.05(  5.04%)
  28. (0.00000) RY ( 6) H  1            s( 41.87%)p 1.39( 58.13%)
  29. (0.00058) RY ( 1) C  2            s(  0.00%)p 1.00( 98.70%)d 0.01(  1.30%)
                                         0.0000  0.0000  0.0000  0.0000 -0.0039
                                         0.9817 -0.0821  0.1278  0.0000  0.0119
                                        -0.0010  0.0015  0.0000  0.0000  0.0000
                                         0.0000  0.0000 -0.1142 -0.0014  0.0000
                                         0.0000
  30. (0.00058) RY ( 2) C  2            s(  0.00%)p 1.00( 98.70%)d 0.01(  1.30%)
                                         0.0000  0.0000  0.0000  0.0000  0.0000
                                        -0.0119  0.0010 -0.0015 -0.0039  0.9817
                                        -0.0821  0.1278  0.0000  0.0000  0.0000
                                         0.0000  0.0000  0.0014 -0.1142  0.0000
                                         0.0000
  31. (0.00051) RY ( 3) C  2            s( 52.16%)p 0.92( 47.84%)d 0.00(  0.00%)
                                         0.0000  0.0059  0.7208 -0.0446  0.0000
                                         0.0000  0.0000  0.0000  0.0000  0.0000
                                         0.0000  0.0000 -0.0015 -0.2850 -0.4319
                                         0.4589  0.0000  0.0000  0.0000  0.0000
                                        -0.0039
  32. (0.00008) RY ( 4) C  2            s( 32.46%)p 2.04( 66.38%)d 0.04(  1.15%)
  33. (0.00002) RY ( 5) C  2            s( 11.60%)p 7.51( 87.17%)d 0.11(  1.23%)
  34. (0.00000) RY ( 6) C  2            s(  0.65%)p 6.86(  4.46%)d99.99( 94.89%)
  35. (0.00000) RY ( 7) C  2            s( 53.72%)p 0.85( 45.54%)d 0.01(  0.74%)
  36. (0.00000) RY ( 8) C  2            s( 49.69%)p 0.98( 48.59%)d 0.03(  1.73%)
  37. (0.00000) RY ( 9) C  2            s(  0.00%)p 1.00( 93.25%)d 0.07(  6.75%)
  38. (0.00000) RY (10) C  2            s(  0.00%)p 1.00( 98.38%)d 0.02(  1.62%)
  39. (0.00000) RY (11) C  2            s(  0.00%)p 1.00( 77.75%)d 0.29( 22.25%)
  40. (0.00000) RY (12) C  2            s(  0.00%)p 1.00( 62.56%)d 0.60( 37.44%)
  41. (0.00000) RY (13) C  2            s(  0.00%)p 1.00( 48.87%)d 1.05( 51.13%)
  42. (0.00000) RY (14) C  2            s(  0.00%)p 1.00( 22.17%)d 3.51( 77.83%)
  43. (0.00000) RY (15) C  2            s(  0.00%)p 0.00(  0.00%)d 1.00(100.00%)
  44. (0.00000) RY (16) C  2            s(  0.00%)p 0.00(  0.00%)d 1.00(100.00%)
  45. (0.00244) RY ( 1) C  3            s( 76.65%)p 0.30( 22.74%)d 0.01(  0.61%)
                                         0.0000  0.0075  0.8504  0.2079 -0.0096
                                         0.0000  0.0000  0.0000  0.0000  0.0000
                                         0.0000  0.0000  0.0000  0.0178  0.0355
                                         0.4737  0.0371  0.0000  0.0000  0.0000
                                         0.0000  0.0781
  46. (0.00203) RY ( 2) C  3            s(  0.00%)p 1.00( 77.60%)d 0.29( 22.40%)
                                         0.0000  0.0000  0.0000  0.0000  0.0000
                                         0.0296  0.8631  0.0583  0.0428  0.0054
                                         0.1571  0.0106  0.0078  0.0000  0.0000
                                         0.0000  0.0000  0.0000 -0.4657 -0.0848
                                         0.0000  0.0000
  47. (0.00203) RY ( 3) C  3            s(  0.00%)p 1.00( 77.60%)d 0.29( 22.40%)
                                         0.0000  0.0000  0.0000  0.0000  0.0000
                                        -0.0054 -0.1571 -0.0106 -0.0078  0.0296
                                         0.8631  0.0583  0.0428  0.0000  0.0000
                                         0.0000  0.0000  0.0000  0.0848 -0.4657
                                         0.0000  0.0000
  48. (0.00068) RY ( 4) C  3            s( 23.24%)p 3.29( 76.45%)d 0.01(  0.31%)
                                         0.0000 -0.0118  0.4085  0.2545  0.0244
                                         0.0000  0.0000  0.0000  0.0000  0.0000
                                         0.0000  0.0000  0.0000  0.0045 -0.0381
                                        -0.8619  0.1420  0.0000  0.0000  0.0000
                                         0.0000  0.0556
  49. (0.00009) RY ( 5) C  3            s( 80.78%)p 0.20( 16.42%)d 0.03(  2.80%)
  50. (0.00000) RY ( 6) C  3            s(  3.80%)p 3.20( 12.18%)d22.09( 84.01%)
  51. (0.00000) RY ( 7) C  3            s(  9.68%)p 8.87( 85.85%)d 0.46(  4.47%)
  52. (0.00000) RY ( 8) C  3            s( 38.69%)p 1.48( 57.40%)d 0.10(  3.91%)
  53. (0.00000) RY ( 9) C  3            s( 67.32%)p 0.43( 28.95%)d 0.06(  3.73%)
  54. (0.00000) RY (10) C  3            s(  0.00%)p 1.00( 99.95%)d 0.00(  0.05%)
  55. (0.00000) RY (11) C  3            s(  0.00%)p 1.00( 99.85%)d 0.00(  0.15%)
  56. (0.00000) RY (12) C  3            s(  0.00%)p 1.00( 99.86%)d 0.00(  0.14%)
  57. (0.00000) RY (13) C  3            s(  0.00%)p 1.00( 80.05%)d 0.25( 19.95%)
  58. (0.00000) RY (14) C  3            s(  0.00%)p 1.00( 22.72%)d 3.40( 77.28%)
  59. (0.00000) RY (15) C  3            s(  0.00%)p 0.00(  0.00%)d 1.00(100.00%)
  60. (0.00000) RY (16) C  3            s(  0.00%)p 1.00( 42.59%)d 1.35( 57.41%)
  61. (0.00000) RY (17) C  3            s(  0.00%)p 0.00(  0.00%)d 1.00(100.00%)
  62. (0.00244) RY ( 1) C  4            s( 76.65%)p 0.30( 22.74%)d 0.01(  0.61%)
                                         0.0000  0.0075  0.8504  0.2079 -0.0096
                                         0.0000  0.0000  0.0000  0.0000  0.0000
                                         0.0000  0.0000  0.0000 -0.0178 -0.0355
                                        -0.4737 -0.0371  0.0000  0.0000  0.0000
                                         0.0000  0.0781
  63. (0.00203) RY ( 2) C  4            s(  0.00%)p 1.00( 77.60%)d 0.29( 22.40%)
                                         0.0000  0.0000  0.0000  0.0000  0.0000
                                        -0.0011 -0.0309 -0.0021 -0.0015  0.0300
                                         0.8767  0.0592  0.0435  0.0000  0.0000
                                         0.0000  0.0000  0.0000 -0.0167  0.4730
                                         0.0000  0.0000
  64. (0.00203) RY ( 3) C  4            s(  0.00%)p 1.00( 77.60%)d 0.29( 22.40%)
                                         0.0000  0.0000  0.0000  0.0000  0.0000
                                         0.0300  0.8767  0.0592  0.0435  0.0011
                                         0.0309  0.0021  0.0015  0.0000  0.0000
                                         0.0000  0.0000  0.0000  0.4730  0.0167
                                         0.0000  0.0000
  65. (0.00068) RY ( 4) C  4            s( 23.24%)p 3.29( 76.45%)d 0.01(  0.31%)
                                         0.0000 -0.0118  0.4085  0.2545  0.0244
                                         0.0000  0.0000  0.0000  0.0000  0.0000
                                         0.0000  0.0000  0.0000 -0.0045  0.0381
                                         0.8619 -0.1420  0.0000  0.0000  0.0000
                                         0.0000  0.0556
  66. (0.00009) RY ( 5) C  4            s( 80.78%)p 0.20( 16.42%)d 0.03(  2.80%)
  67. (0.00000) RY ( 6) C  4            s(  3.80%)p 3.20( 12.18%)d22.09( 84.01%)
  68. (0.00000) RY ( 7) C  4            s(  9.68%)p 8.87( 85.85%)d 0.46(  4.47%)
  69. (0.00000) RY ( 8) C  4            s( 38.75%)p 1.48( 57.35%)d 0.10(  3.90%)
  70. (0.00000) RY ( 9) C  4            s( 67.26%)p 0.43( 29.01%)d 0.06(  3.73%)
  71. (0.00000) RY (10) C  4            s(  0.00%)p 1.00( 86.36%)d 0.16( 13.64%)
  72. (0.00000) RY (11) C  4            s(  0.00%)p 1.00( 96.77%)d 0.03(  3.23%)
  73. (0.00000) RY (12) C  4            s(  0.00%)p 1.00( 99.83%)d 0.00(  0.17%)
  74. (0.00000) RY (13) C  4            s(  0.00%)p 1.00( 70.55%)d 0.42( 29.45%)
  75. (0.00000) RY (14) C  4            s(  0.00%)p 0.00(  0.00%)d 1.00(100.00%)
  76. (0.00000) RY (15) C  4            s(  0.00%)p 1.00( 55.09%)d 0.82( 44.91%)
  77. (0.00000) RY (16) C  4            s(  0.00%)p 1.00( 36.41%)d 1.75( 63.59%)
  78. (0.00000) RY (17) C  4            s(  0.00%)p 0.00(  0.00%)d 1.00(100.00%)
  79. (0.00058) RY ( 1) C  5            s(  0.00%)p 1.00( 98.70%)d 0.01(  1.30%)
                                         0.0000  0.0000  0.0000  0.0000 -0.0039
                                         0.9800 -0.0820  0.1276  0.0002 -0.0584
                                         0.0049 -0.0076  0.0000  0.0000  0.0000
                                         0.0000  0.0000  0.1140 -0.0068  0.0000
                                         0.0000
  80. (0.00058) RY ( 2) C  5            s(  0.00%)p 1.00( 98.70%)d 0.01(  1.30%)
                                         0.0000  0.0000  0.0000  0.0000 -0.0002
                                         0.0584 -0.0049  0.0076 -0.0039  0.9800
                                        -0.0820  0.1276  0.0000  0.0000  0.0000
                                         0.0000  0.0000  0.0068  0.1140  0.0000
                                         0.0000
  81. (0.00051) RY ( 3) C  5            s( 52.16%)p 0.92( 47.84%)d 0.00(  0.00%)
                                         0.0000  0.0059  0.7208 -0.0446  0.0000
                                         0.0000  0.0000  0.0000  0.0000  0.0000
                                         0.0000  0.0000  0.0015  0.2850  0.4319
                                        -0.4589  0.0000  0.0000  0.0000  0.0000
                                        -0.0039
  82. (0.00008) RY ( 4) C  5            s( 32.46%)p 2.04( 66.38%)d 0.04(  1.15%)
  83. (0.00002) RY ( 5) C  5            s( 11.60%)p 7.51( 87.17%)d 0.11(  1.23%)
  84. (0.00000) RY ( 6) C  5            s(  0.65%)p 6.86(  4.46%)d99.99( 94.89%)
  85. (0.00000) RY ( 7) C  5            s( 53.71%)p 0.85( 45.55%)d 0.01(  0.74%)
  86. (0.00000) RY ( 8) C  5            s( 49.70%)p 0.98( 48.58%)d 0.03(  1.73%)
  87. (0.00000) RY ( 9) C  5            s(  0.00%)p 1.00( 90.37%)d 0.11(  9.63%)
  88. (0.00000) RY (10) C  5            s(  0.00%)p 1.00( 93.76%)d 0.07(  6.24%)
  89. (0.00000) RY (11) C  5            s(  0.00%)p 0.00(  0.00%)d 1.00(100.00%)
  90. (0.00000) RY (12) C  5            s(  0.00%)p 1.00( 27.42%)d 2.65( 72.58%)
  91. (0.00000) RY (13) C  5            s(  0.00%)p 1.00( 81.77%)d 0.22( 18.23%)
  92. (0.00000) RY (14) C  5            s(  0.00%)p 1.00( 92.45%)d 0.08(  7.55%)
  93. (0.00000) RY (15) C  5            s(  0.00%)p 1.00( 17.21%)d 4.81( 82.79%)
  94. (0.00000) RY (16) C  5            s(  0.00%)p 0.00(  0.00%)d 1.00(100.00%)
  95. (0.00083) RY ( 1) H  6            s( 84.79%)p 0.18( 15.21%)
                                        -0.0082  0.9201 -0.0344 -0.0006  0.0000
                                         0.0000  0.3900
  96. (0.00013) RY ( 2) H  6            s( 78.47%)p 0.27( 21.53%)
                                         0.0146  0.2288  0.8556  0.0048  0.0000
                                         0.0000 -0.4640
  97. (0.00010) RY ( 3) H  6            s(  0.00%)p 1.00(100.00%)
  98. (0.00010) RY ( 4) H  6            s(  0.00%)p 1.00(100.00%)
  99. (0.00000) RY ( 5) H  6            s( 94.96%)p 0.05(  5.04%)
 100. (0.00000) RY ( 6) H  6            s( 41.87%)p 1.39( 58.13%)


 NHO DIRECTIONALITY AND BOND BENDING (deviation from line of nuclear centers at
                                      the position of maximum hybrid amplitude)

         [Thresholds for printing:  angular deviation  >  1.0 degree]
                                    p- or d-character  > 25.0%
                                    orbital occupancy  >  0.10e

                        Line of Centers        Hybrid 1             Hybrid 2
                        ---------------  -------------------  ------------------
           NBO            Theta   Phi    Theta   Phi    Dev   Theta   Phi    Dev
 ===============================================================================
   7. BD ( 2) C  2- C  3  180.0    0.0    91.0  230.4  89.0    89.0   50.4  89.0
   8. BD ( 3) C  2- C  3  180.0    0.0    91.0  140.4  89.0    89.0  320.4  89.0
  11. BD ( 2) C  4- C  5  180.0    0.0    91.0  124.7  89.0    89.0  124.7  89.0
  12. BD ( 3) C  4- C  5  180.0    0.0    91.0  214.7  89.0    89.0   34.7  89.0


 SECOND ORDER PERTURBATION THEORY ANALYSIS OF FOCK MATRIX IN NBO BASIS

     Threshold for printing:   0.50 kcal/mol
                                                          E(2) E(NL)-E(L) F(L,NL)
      Donor (L) NBO              Acceptor (NL) NBO      kcal/mol   a.u.    a.u.
 ===============================================================================

 within unit  1
    5. BD ( 1) H  1- C  2      15. BD*( 1) C  2- C  3     10.21    2.10   0.131
    5. BD ( 1) H  1- C  2      18. BD*( 1) C  3- C  4      5.60    1.63   0.085
    5. BD ( 1) H  1- C  2      27. RY ( 5) H  1            1.38    2.27   0.050
    5. BD ( 1) H  1- C  2      31. RY ( 3) C  2            1.29    3.72   0.062
    5. BD ( 1) H  1- C  2      34. RY ( 6) C  2            1.08    4.36   0.061
    5. BD ( 1) H  1- C  2      35. RY ( 7) C  2            1.35   11.16   0.109
    5. BD ( 1) H  1- C  2      36. RY ( 8) C  2            1.59    9.06   0.107
    5. BD ( 1) H  1- C  2      45. RY ( 1) C  3            6.89    3.43   0.137
    5. BD ( 1) H  1- C  2      50. RY ( 6) C  3            0.85    4.15   0.053
    5. BD ( 1) H  1- C  2      51. RY ( 7) C  3            1.38    7.58   0.091
    5. BD ( 1) H  1- C  2      52. RY ( 8) C  3            0.72   10.54   0.078
    5. BD ( 1) H  1- C  2      53. RY ( 9) C  3            2.20   12.76   0.150
    6. BD ( 1) C  2- C  3      14. BD*( 1) H  1- C  2      6.26    1.69   0.092
    6. BD ( 1) C  2- C  3      18. BD*( 1) C  3- C  4     14.94    1.86   0.149
    6. BD ( 1) C  2- C  3      19. BD*( 1) C  4- C  5      3.00    2.33   0.075
    6. BD ( 1) C  2- C  3      23. RY ( 1) H  1            0.85    3.41   0.048
    6. BD ( 1) C  2- C  3      24. RY ( 2) H  1            0.66    2.26   0.034
    6. BD ( 1) C  2- C  3      65. RY ( 4) C  4            1.02    4.21   0.058
    7. BD ( 2) C  2- C  3      20. BD*( 2) C  4- C  5      1.37    0.73   0.028
    7. BD ( 2) C  2- C  3      21. BD*( 3) C  4- C  5     17.18    0.73   0.100
    7. BD ( 2) C  2- C  3      63. RY ( 2) C  4            1.30    1.37   0.038
    7. BD ( 2) C  2- C  3      64. RY ( 3) C  4            1.03    1.37   0.033
    8. BD ( 3) C  2- C  3      20. BD*( 2) C  4- C  5     17.18    0.73   0.100
    8. BD ( 3) C  2- C  3      21. BD*( 3) C  4- C  5      1.37    0.73   0.028
    8. BD ( 3) C  2- C  3      63. RY ( 2) C  4            1.03    1.37   0.033
    8. BD ( 3) C  2- C  3      64. RY ( 3) C  4            1.30    1.37   0.038
    9. BD ( 1) C  3- C  4      14. BD*( 1) H  1- C  2      1.79    1.58   0.047
    9. BD ( 1) C  3- C  4      15. BD*( 1) C  2- C  3     17.41    2.22   0.176
    9. BD ( 1) C  3- C  4      19. BD*( 1) C  4- C  5     17.41    2.22   0.176
    9. BD ( 1) C  3- C  4      22. BD*( 1) C  5- H  6      1.79    1.58   0.047
    9. BD ( 1) C  3- C  4      27. RY ( 5) H  1            0.56    2.39   0.033
    9. BD ( 1) C  3- C  4      31. RY ( 3) C  2            2.21    3.84   0.082
    9. BD ( 1) C  3- C  4      34. RY ( 6) C  2            0.70    4.48   0.050
    9. BD ( 1) C  3- C  4      50. RY ( 6) C  3            0.66    4.26   0.047
    9. BD ( 1) C  3- C  4      53. RY ( 9) C  3            1.03   12.88   0.103
    9. BD ( 1) C  3- C  4      67. RY ( 6) C  4            0.66    4.26   0.047
    9. BD ( 1) C  3- C  4      70. RY ( 9) C  4            1.04   12.87   0.103
    9. BD ( 1) C  3- C  4      81. RY ( 3) C  5            2.21    3.84   0.082
    9. BD ( 1) C  3- C  4      84. RY ( 6) C  5            0.70    4.48   0.050
    9. BD ( 1) C  3- C  4      99. RY ( 5) H  6            0.56    2.39   0.033
   10. BD ( 1) C  4- C  5      15. BD*( 1) C  2- C  3      3.00    2.33   0.075
   10. BD ( 1) C  4- C  5      18. BD*( 1) C  3- C  4     14.94    1.86   0.149
   10. BD ( 1) C  4- C  5      22. BD*( 1) C  5- H  6      6.26    1.69   0.092
   10. BD ( 1) C  4- C  5      48. RY ( 4) C  3            1.02    4.21   0.058
   10. BD ( 1) C  4- C  5      95. RY ( 1) H  6            0.85    3.41   0.048
   10. BD ( 1) C  4- C  5      96. RY ( 2) H  6            0.66    2.26   0.034
   11. BD ( 2) C  4- C  5      16. BD*( 2) C  2- C  3      1.37    0.73   0.028
   11. BD ( 2) C  4- C  5      17. BD*( 3) C  2- C  3     17.18    0.73   0.100
   11. BD ( 2) C  4- C  5      47. RY ( 3) C  3            1.93    1.37   0.046
   12. BD ( 3) C  4- C  5      16. BD*( 2) C  2- C  3     17.18    0.73   0.100
   12. BD ( 3) C  4- C  5      17. BD*( 3) C  2- C  3      1.37    0.73   0.028
   12. BD ( 3) C  4- C  5      46. RY ( 2) C  3            1.93    1.37   0.046
   13. BD ( 1) C  5- H  6      18. BD*( 1) C  3- C  4      5.60    1.63   0.085
   13. BD ( 1) C  5- H  6      19. BD*( 1) C  4- C  5     10.21    2.10   0.131
   13. BD ( 1) C  5- H  6      62. RY ( 1) C  4            6.89    3.43   0.137
   13. BD ( 1) C  5- H  6      67. RY ( 6) C  4            0.85    4.15   0.053
   13. BD ( 1) C  5- H  6      68. RY ( 7) C  4            1.38    7.58   0.091
   13. BD ( 1) C  5- H  6      69. RY ( 8) C  4            0.72   10.55   0.078
   13. BD ( 1) C  5- H  6      70. RY ( 9) C  4            2.20   12.75   0.150
   13. BD ( 1) C  5- H  6      81. RY ( 3) C  5            1.29    3.72   0.062
   13. BD ( 1) C  5- H  6      84. RY ( 6) C  5            1.08    4.36   0.061
   13. BD ( 1) C  5- H  6      85. RY ( 7) C  5            1.35   11.16   0.109
   13. BD ( 1) C  5- H  6      86. RY ( 8) C  5            1.59    9.06   0.107
   13. BD ( 1) C  5- H  6      99. RY ( 5) H  6            1.38    2.27   0.050


 NATURAL BOND ORBITALS (Summary):

                                                     Principal Delocalizations
           NBO                 Occupancy    Energy   (geminal,vicinal,remote)
 ===============================================================================
 Molecular unit  1  (C4H2)
 ------ Lewis --------------------------------------
    1. CR ( 1) C  2             2.00000   -11.25256
    2. CR ( 1) C  3             2.00000   -11.26285
    3. CR ( 1) C  4             2.00000   -11.26285
    4. CR ( 1) C  5             2.00000   -11.25256
    5. BD ( 1) H  1- C  2       1.98863    -0.74815  15(g),45(v),18(v),53(v)
                                                     36(g),51(v),27(g),35(g)
                                                     31(g),34(g),50(v),52(v)
    6. BD ( 1) C  2- C  3       1.97979    -0.97817  18(g),14(g),19(v),65(v)
                                                     23(v),24(v)
    7. BD ( 2) C  2- C  3       1.95843    -0.42076  21(v),20(v),63(v),64(v)
    8. BD ( 3) C  2- C  3       1.95843    -0.42076  20(v),21(v),64(v),63(v)
    9. BD ( 1) C  3- C  4       1.97558    -0.86666  15(g),19(g),31(v),81(v)
                                                     14(v),22(v),70(g),53(g)
                                                     34(v),84(v),50(g),67(g)
                                                     27(r),99(r)
   10. BD ( 1) C  4- C  5       1.97979    -0.97817  18(g),22(g),15(v),48(v)
                                                     95(v),96(v)
   11. BD ( 2) C  4- C  5       1.95843    -0.42076  17(v),47(v),16(v)
   12. BD ( 3) C  4- C  5       1.95843    -0.42076  16(v),46(v),17(v)
   13. BD ( 1) C  5- H  6       1.98863    -0.74815  19(g),62(v),18(v),70(v)
                                                     86(g),68(v),99(g),85(g)
                                                     81(g),84(g),67(v),69(v)
 ------ non-Lewis ----------------------------------
   14. BD*( 1) H  1- C  2       0.00676     0.71487
   15. BD*( 1) C  2- C  3       0.01800     1.35589
   16. BD*( 2) C  2- C  3       0.03886     0.31351
   17. BD*( 3) C  2- C  3       0.03886     0.31351
   18. BD*( 1) C  3- C  4       0.02845     0.87711
   19. BD*( 1) C  4- C  5       0.01800     1.35589
   20. BD*( 2) C  4- C  5       0.03886     0.31351
   21. BD*( 3) C  4- C  5       0.03886     0.31351
   22. BD*( 1) C  5- H  6       0.00676     0.71487
   23. RY ( 1) H  1             0.00083     2.43182
   24. RY ( 2) H  1             0.00013     1.27754
   25. RY ( 3) H  1             0.00010     1.90174
   26. RY ( 4) H  1             0.00010     1.90174
   27. RY ( 5) H  1             0.00000     1.52598
   28. RY ( 6) H  1             0.00000     2.06209
   29. RY ( 1) C  2             0.00058     0.49140
   30. RY ( 2) C  2             0.00058     0.49140
   31. RY ( 3) C  2             0.00051     2.97660
   32. RY ( 4) C  2             0.00008     1.66104
   33. RY ( 5) C  2             0.00002     0.73487
   34. RY ( 6) C  2             0.00000     3.61218
   35. RY ( 7) C  2             0.00000    10.41047
   36. RY ( 8) C  2             0.00000     8.30819
   37. RY ( 9) C  2             0.00000     1.14255
   38. RY (10) C  2             0.00000     1.77814
   39. RY (11) C  2             0.00000     2.02247
   40. RY (12) C  2             0.00000     2.55875
   41. RY (13) C  2             0.00000     2.43922
   42. RY (14) C  2             0.00000     1.83478
   43. RY (15) C  2             0.00000     1.61953
   44. RY (16) C  2             0.00000     1.61953
   45. RY ( 1) C  3             0.00244     2.68471
   46. RY ( 2) C  3             0.00203     0.94732
   47. RY ( 3) C  3             0.00203     0.94732
   48. RY ( 4) C  3             0.00068     3.23236
   49. RY ( 5) C  3             0.00009     3.27786
   50. RY ( 6) C  3             0.00000     3.39758
   51. RY ( 7) C  3             0.00000     6.83584
   52. RY ( 8) C  3             0.00000     9.79001
   53. RY ( 9) C  3             0.00000    12.01303
   54. RY (10) C  3             0.00000     0.82316
   55. RY (11) C  3             0.00000     2.32551
   56. RY (12) C  3             0.00000     1.22956
   57. RY (13) C  3             0.00000     2.57019
   58. RY (14) C  3             0.00000     1.90065
   59. RY (15) C  3             0.00000     1.62301
   60. RY (16) C  3             0.00000     2.07946
   61. RY (17) C  3             0.00000     1.62301
   62. RY ( 1) C  4             0.00244     2.68471
   63. RY ( 2) C  4             0.00203     0.94732
   64. RY ( 3) C  4             0.00203     0.94732
   65. RY ( 4) C  4             0.00068     3.23236
   66. RY ( 5) C  4             0.00009     3.27785
   67. RY ( 6) C  4             0.00000     3.39759
   68. RY ( 7) C  4             0.00000     6.83363
   69. RY ( 8) C  4             0.00000     9.80123
   70. RY ( 9) C  4             0.00000    12.00400
   71. RY (10) C  4             0.00000     2.19471
   72. RY (11) C  4             0.00000     1.87873
   73. RY (12) C  4             0.00000     1.62597
   74. RY (13) C  4             0.00000     1.03902
   75. RY (14) C  4             0.00000     1.62301
   76. RY (15) C  4             0.00000     2.15708
   77. RY (16) C  4             0.00000     2.03301
   78. RY (17) C  4             0.00000     1.62301
   79. RY ( 1) C  5             0.00058     0.49140
   80. RY ( 2) C  5             0.00058     0.49140
   81. RY ( 3) C  5             0.00051     2.97660
   82. RY ( 4) C  5             0.00008     1.66104
   83. RY ( 5) C  5             0.00002     0.73488
   84. RY ( 6) C  5             0.00000     3.61217
   85. RY ( 7) C  5             0.00000    10.40865
   86. RY ( 8) C  5             0.00000     8.31001
   87. RY ( 9) C  5             0.00000     2.14565
   88. RY (10) C  5             0.00000     2.73872
   89. RY (11) C  5             0.00000     1.61953
   90. RY (12) C  5             0.00000     2.47538
   91. RY (13) C  5             0.00000     1.26304
   92. RY (14) C  5             0.00000     1.31544
   93. RY (15) C  5             0.00000     1.83770
   94. RY (16) C  5             0.00000     1.61953
   95. RY ( 1) H  6             0.00083     2.43182
   96. RY ( 2) H  6             0.00013     1.27754
   97. RY ( 3) H  6             0.00010     1.90174
   98. RY ( 4) H  6             0.00010     1.90174
   99. RY ( 5) H  6             0.00000     1.52598
  100. RY ( 6) H  6             0.00000     2.06209
          -------------------------------
                 Total Lewis   25.74615  ( 99.0237%)
           Valence non-Lewis    0.23343  (  0.8978%)
           Rydberg non-Lewis    0.02042  (  0.0785%)
          -------------------------------
               Total unit  1   26.00000  (100.0000%)
              Charge unit  1    0.00000

 $CHOOSE
   BOND S 1 2 T 2 3 S 3 4 T 4 5 S 5 6 END
 $END

 NBO analysis completed in 0.20 CPU seconds (0 wall seconds)
 Maximum scratch memory used by NBO was 460722 words (3.52 MB)
 Maximum scratch memory used by G09NBO was 24463 words (0.19 MB)


 LEWIS: Delete all non-Lewis NBOs
 Deletion of the following orbitals from the NBO Fock matrix:
   14  15  16  17  18  19  20  21  22  23  24  25  26  27  28  29  30  31  32  33
   34  35  36  37  38  39  40  41  42  43  44  45  46  47  48  49  50  51  52  53
   54  55  56  57  58  59  60  61  62  63  64  65  66  67  68  69  70  71  72  73
   74  75  76  77  78  79  80  81  82  83  84  85  86  87  88  89  90  91  92  93
   94  95  96  97  98  99 100

 Orbital occupancies:

       Orbital                         No deletions  This deletion    Change
 ------------------------------------------------------------------------------
    1. CR ( 1) C  2                      2.00000        2.00000       0.00000
    2. CR ( 1) C  3                      2.00000        2.00000       0.00000
    3. CR ( 1) C  4                      2.00000        2.00000       0.00000
    4. CR ( 1) C  5                      2.00000        2.00000       0.00000
    5. BD ( 1) H  1- C  2                1.98863        2.00000       0.01137
    6. BD ( 1) C  2- C  3                1.97979        2.00000       0.02021
    7. BD ( 2) C  2- C  3                1.95843        2.00000       0.04157
    8. BD ( 3) C  2- C  3                1.95843        2.00000       0.04157
    9. BD ( 1) C  3- C  4                1.97558        2.00000       0.02442
   10. BD ( 1) C  4- C  5                1.97979        2.00000       0.02021
   11. BD ( 2) C  4- C  5                1.95843        2.00000       0.04157
   12. BD ( 3) C  4- C  5                1.95843        2.00000       0.04157
   13. BD ( 1) C  5- H  6                1.98863        2.00000       0.01137
   14. BD*( 1) H  1- C  2                0.00676        0.00000      -0.00676
   15. BD*( 1) C  2- C  3                0.01800        0.00000      -0.01800
   16. BD*( 2) C  2- C  3                0.03886        0.00000      -0.03886
   17. BD*( 3) C  2- C  3                0.03886        0.00000      -0.03886
   18. BD*( 1) C  3- C  4                0.02845        0.00000      -0.02845
   19. BD*( 1) C  4- C  5                0.01800        0.00000      -0.01800
   20. BD*( 2) C  4- C  5                0.03886        0.00000      -0.03886
   21. BD*( 3) C  4- C  5                0.03886        0.00000      -0.03886
   22. BD*( 1) C  5- H  6                0.00676        0.00000      -0.00676
   23. RY ( 1) H  1                      0.00083        0.00000      -0.00083
   24. RY ( 2) H  1                      0.00013        0.00000      -0.00013
   25. RY ( 3) H  1                      0.00010        0.00000      -0.00010
   26. RY ( 4) H  1                      0.00010        0.00000      -0.00010
   27. RY ( 5) H  1                      0.00000        0.00000       0.00000
   28. RY ( 6) H  1                      0.00000        0.00000       0.00000
   29. RY ( 1) C  2                      0.00058        0.00000      -0.00058
   30. RY ( 2) C  2                      0.00058        0.00000      -0.00058
   31. RY ( 3) C  2                      0.00051        0.00000      -0.00051
   32. RY ( 4) C  2                      0.00008        0.00000      -0.00008
   33. RY ( 5) C  2                      0.00002        0.00000      -0.00002
   34. RY ( 6) C  2                      0.00000        0.00000       0.00000
   35. RY ( 7) C  2                      0.00000        0.00000       0.00000
   36. RY ( 8) C  2                      0.00000        0.00000       0.00000
   37. RY ( 9) C  2                      0.00000        0.00000       0.00000
   38. RY (10) C  2                      0.00000        0.00000       0.00000
   39. RY (11) C  2                      0.00000        0.00000       0.00000
   40. RY (12) C  2                      0.00000        0.00000       0.00000
   41. RY (13) C  2                      0.00000        0.00000       0.00000
   42. RY (14) C  2                      0.00000        0.00000       0.00000
   43. RY (15) C  2                      0.00000        0.00000       0.00000
   44. RY (16) C  2                      0.00000        0.00000       0.00000
   45. RY ( 1) C  3                      0.00244        0.00000      -0.00244
   46. RY ( 2) C  3                      0.00203        0.00000      -0.00203
   47. RY ( 3) C  3                      0.00203        0.00000      -0.00203
   48. RY ( 4) C  3                      0.00068        0.00000      -0.00068
   49. RY ( 5) C  3                      0.00009        0.00000      -0.00009
   50. RY ( 6) C  3                      0.00000        0.00000       0.00000
   51. RY ( 7) C  3                      0.00000        0.00000       0.00000
   52. RY ( 8) C  3                      0.00000        0.00000       0.00000
   53. RY ( 9) C  3                      0.00000        0.00000       0.00000
   54. RY (10) C  3                      0.00000        0.00000       0.00000
   55. RY (11) C  3                      0.00000        0.00000       0.00000
   56. RY (12) C  3                      0.00000        0.00000       0.00000
   57. RY (13) C  3                      0.00000        0.00000       0.00000
   58. RY (14) C  3                      0.00000        0.00000       0.00000
   59. RY (15) C  3                      0.00000        0.00000       0.00000
   60. RY (16) C  3                      0.00000        0.00000       0.00000
   61. RY (17) C  3                      0.00000        0.00000       0.00000
   62. RY ( 1) C  4                      0.00244        0.00000      -0.00244
   63. RY ( 2) C  4                      0.00203        0.00000      -0.00203
   64. RY ( 3) C  4                      0.00203        0.00000      -0.00203
   65. RY ( 4) C  4                      0.00068        0.00000      -0.00068
   66. RY ( 5) C  4                      0.00009        0.00000      -0.00009
   67. RY ( 6) C  4                      0.00000        0.00000       0.00000
   68. RY ( 7) C  4                      0.00000        0.00000       0.00000
   69. RY ( 8) C  4                      0.00000        0.00000       0.00000
   70. RY ( 9) C  4                      0.00000        0.00000       0.00000
   71. RY (10) C  4                      0.00000        0.00000       0.00000
   72. RY (11) C  4                      0.00000        0.00000       0.00000
   73. RY (12) C  4                      0.00000        0.00000       0.00000
   74. RY (13) C  4                      0.00000        0.00000       0.00000
   75. RY (14) C  4                      0.00000        0.00000       0.00000
   76. RY (15) C  4                      0.00000        0.00000       0.00000
   77. RY (16) C  4                      0.00000        0.00000       0.00000
   78. RY (17) C  4                      0.00000        0.00000       0.00000
   79. RY ( 1) C  5                      0.00058        0.00000      -0.00058
   80. RY ( 2) C  5                      0.00058        0.00000      -0.00058
   81. RY ( 3) C  5                      0.00051        0.00000      -0.00051
   82. RY ( 4) C  5                      0.00008        0.00000      -0.00008
   83. RY ( 5) C  5                      0.00002        0.00000      -0.00002
   84. RY ( 6) C  5                      0.00000        0.00000       0.00000
   85. RY ( 7) C  5                      0.00000        0.00000       0.00000
   86. RY ( 8) C  5                      0.00000        0.00000       0.00000
   87. RY ( 9) C  5                      0.00000        0.00000       0.00000
   88. RY (10) C  5                      0.00000        0.00000       0.00000
   89. RY (11) C  5                      0.00000        0.00000       0.00000
   90. RY (12) C  5                      0.00000        0.00000       0.00000
   91. RY (13) C  5                      0.00000        0.00000       0.00000
   92. RY (14) C  5                      0.00000        0.00000       0.00000
   93. RY (15) C  5                      0.00000        0.00000       0.00000
   94. RY (16) C  5                      0.00000        0.00000       0.00000
   95. RY ( 1) H  6                      0.00083        0.00000      -0.00083
   96. RY ( 2) H  6                      0.00013        0.00000      -0.00013
   97. RY ( 3) H  6                      0.00010        0.00000      -0.00010
   98. RY ( 4) H  6                      0.00010        0.00000      -0.00010
   99. RY ( 5) H  6                      0.00000        0.00000       0.00000
  100. RY ( 6) H  6                      0.00000        0.00000       0.00000

 NEXT STEP:  Perform one SCF cycle to evaluate the energy of the new density
             matrix constructed from the deleted NBO Fock matrix.

 ------------------------------------------------------------------------------
 Read Unf file /scr/ericg/c4h2/Gau-19835.EUF:
 Label Gaussian matrix elements                                         IVers= 1 NLab= 2 Version=ES64L-G09RevE.01
 Title Butadiyne...rhf/6-311++g**                                      
 NAtoms=     6 NBasis=   102 NBsUse=   101 ICharg=     0 Multip=     1 NE=    26 Len12L=8 Len4L=8
 Label GAUSSIAN SCALARS                                                 NI= 1 NR= 1 NTot=       1 LenBuf=    2000 N=    1000       1       1       1       1
 Label ALPHA DENSITY MATRIX                                             NI= 0 NR= 1 NTot=    5253 LenBuf=    4000 N=    -102     102       0       0       0
 Store file  528 Len=    5253.
 Label ALPHA MO COEFFICIENTS                                            NI= 0 NR= 1 NTot=   10302 LenBuf=    4000 N=     102     101       0       0       0
 Store file  524 Len=   10302.
 Label NPA CHARGES                                                      NI= 0 NR= 1 NTot=       6 LenBuf=    4000 N=       6       0       0       0       0
 Recovered energy= -152.537635547     dipole=      0.000000000000      0.000000000000      0.000000000000
 Keep R1 ints in memory in symmetry-blocked form, NReq=15793681.
 Requested convergence on RMS density matrix=1.00D-08 within   1 cycles.
 Requested convergence on MAX density matrix=1.00D-06.
 Requested convergence on             energy=1.00D-06.
 No special actions if energy rises.
 Fock symm off for IB=2 I1=    1 I=   28 J=   20 Cut=1.00D-07 Err=2.59D-01
 Fock matrix is not symmetric: symmetry in diagonalization turned off.
 >>>>>>>>>> Convergence criterion not met.
 SCF Done:  E(RHF) =  -152.276711822     A.U. after    2 cycles
            NFock=  1  Conv=0.10D+00     -V/T= 1.9971
 Running external command "gaunbo6 R"
         input file       "/scr/ericg/c4h2/Gau-19835.EIn"
         output file      "/scr/ericg/c4h2/Gau-19835.EOu"
         message file     "/scr/ericg/c4h2/Gau-19835.EMs"
         fchk file        "/scr/ericg/c4h2/Gau-19835.EFC"
         mat. el file     "/scr/ericg/c4h2/Gau-19835.EUF"

 Writing Wrt12E file "/scr/ericg/c4h2/Gau-19835.EUF"
 Gaussian matrix elements                                         Version   1 NLab= 7 Len12L=8 Len4L=8
 Write GAUSSIAN SCALARS               from file   501 offset           0 to matrix element file.
 Write OVERLAP                        from file   514 offset           0 to matrix element file.
 Write CORE HAMILTONIAN ALPHA         from file   515 offset           0 to matrix element file.
 Write CORE HAMILTONIAN BETA          from file   515 offset        5253 to matrix element file.
 Write KINETIC ENERGY                 from file   516 offset           0 to matrix element file.
 Write ORTHOGONAL BASIS               from file   685 offset           0 to matrix element file.
 Write DIPOLE INTEGRALS               from file   518 offset           0 to matrix element file.
 Array DIP VEL INTEGRALS               on  file    572 does not exist.
 Array R X DEL INTEGRALS               on  file    572 does not exist.
 Write ALPHA ORBITAL ENERGIES         from file     0 offset           0 to matrix element file.
 Write ALPHA MO COEFFICIENTS          from file 10524 offset           0 to matrix element file.
 Write ALPHA DENSITY MATRIX           from file     0 offset           0 to matrix element file.
 Write ALPHA SCF DENSITY MATRIX       from file 10528 offset           0 to matrix element file.
 Write ALPHA FOCK MATRIX              from file 10536 offset           0 to matrix element file.
 No 2e integrals to process.
 Perform NBO analysis...executing G09NBO...

 ------------------------------------------------------------------------------
   Energy of deletion :       -152.276711822
     Total SCF energy :       -152.537635547
                          -------------------
        Energy change :          0.260924 a.u.,         163.732 kcal/mol
 ------------------------------------------------------------------------------

 Read Unf file /scr/ericg/c4h2/Gau-19835.EUF:
 Label Gaussian matrix elements                                         IVers= 1 NLab= 2 Version=ES64L-G09RevE.01
 Title Butadiyne...rhf/6-311++g**                                      
 NAtoms=     6 NBasis=   102 NBsUse=   101 ICharg=     0 Multip=     1 NE=    26 Len12L=8 Len4L=8
 Label GAUSSIAN SCALARS                                                 NI= 1 NR= 1 NTot=       1 LenBuf=    2000 N=    1000       1       1       1       1
 Recovered energy= -152.276711822     dipole=      0.000000000000      0.000000000000      0.000000000000

 This type of calculation cannot be archived.


 My opinions may have changed, but not the fact that I am right.
                       -- Ashleigh Brilliant
 Job cpu time:       0 days  0 hours  0 minutes  9.0 seconds.
 File lengths (MBytes):  RWF=      6 Int=      0 D2E=      0 Chk=      2 Scr=      1
 Normal termination of Gaussian 09 at Mon May 18 14:17:59 2020.
