 Entering Gaussian System, Link 0=g09
 Initial command:
 /opt/g09.e01/g09/l1.exe "/scr/ericg/cisd/Gau-20088.inp" -scrdir="/scr/ericg/cisd/"
 Entering Link 1 = /opt/g09.e01/g09/l1.exe PID=     20090.
  
 Copyright (c) 1988,1990,1992,1993,1995,1998,2003,2009,2015,
            Gaussian, Inc.  All Rights Reserved.
  
 This is part of the Gaussian(R) 09 program.  It is based on
 the Gaussian(R) 03 system (copyright 2003, Gaussian, Inc.),
 the Gaussian(R) 98 system (copyright 1998, Gaussian, Inc.),
 the Gaussian(R) 94 system (copyright 1995, Gaussian, Inc.),
 the Gaussian 92(TM) system (copyright 1992, Gaussian, Inc.),
 the Gaussian 90(TM) system (copyright 1990, Gaussian, Inc.),
 the Gaussian 88(TM) system (copyright 1988, Gaussian, Inc.),
 the Gaussian 86(TM) system (copyright 1986, Carnegie Mellon
 University), and the Gaussian 82(TM) system (copyright 1983,
 Carnegie Mellon University). Gaussian is a federally registered
 trademark of Gaussian, Inc.
  
 This software contains proprietary and confidential information,
 including trade secrets, belonging to Gaussian, Inc.
  
 This software is provided under written license and may be
 used, copied, transmitted, or stored only in accord with that
 written license.
  
 The following legend is applicable only to US Government
 contracts under FAR:
  
                    RESTRICTED RIGHTS LEGEND
  
 Use, reproduction and disclosure by the US Government is
 subject to restrictions as set forth in subparagraphs (a)
 and (c) of the Commercial Computer Software - Restricted
 Rights clause in FAR 52.227-19.
  
 Gaussian, Inc.
 340 Quinnipiac St., Bldg. 40, Wallingford CT 06492
  
  
 ---------------------------------------------------------------
 Warning -- This program may not be used in any manner that
 competes with the business of Gaussian, Inc. or will provide
 assistance to any competitor of Gaussian, Inc.  The licensee
 of this program is prohibited from giving any competitor of
 Gaussian, Inc. access to this program.  By using this program,
 the user acknowledges that Gaussian, Inc. is engaged in the
 business of creating and licensing software in the field of
 computational chemistry and represents and warrants to the
 licensee that it is not a competitor of Gaussian, Inc. and that
 it will not use this program in any manner prohibited above.
 ---------------------------------------------------------------
  

 Cite this work as:
 Gaussian 09, Revision E.01,
 M. J. Frisch, G. W. Trucks, H. B. Schlegel, G. E. Scuseria, 
 M. A. Robb, J. R. Cheeseman, G. Scalmani, V. Barone, B. Mennucci, 
 G. A. Petersson, H. Nakatsuji, M. Caricato, X. Li, H. P. Hratchian, 
 A. F. Izmaylov, J. Bloino, G. Zheng, J. L. Sonnenberg, M. Hada, 
 M. Ehara, K. Toyota, R. Fukuda, J. Hasegawa, M. Ishida, T. Nakajima, 
 Y. Honda, O. Kitao, H. Nakai, T. Vreven, J. A. Montgomery, Jr., 
 J. E. Peralta, F. Ogliaro, M. Bearpark, J. J. Heyd, E. Brothers, 
 K. N. Kudin, V. N. Staroverov, T. Keith, R. Kobayashi, J. Normand, 
 K. Raghavachari, A. Rendell, J. C. Burant, S. S. Iyengar, J. Tomasi, 
 M. Cossi, N. Rega, J. M. Millam, M. Klene, J. E. Knox, J. B. Cross, 
 V. Bakken, C. Adamo, J. Jaramillo, R. Gomperts, R. E. Stratmann, 
 O. Yazyev, A. J. Austin, R. Cammi, C. Pomelli, J. W. Ochterski, 
 R. L. Martin, K. Morokuma, V. G. Zakrzewski, G. A. Voth, 
 P. Salvador, J. J. Dannenberg, S. Dapprich, A. D. Daniels, 
 O. Farkas, J. B. Foresman, J. V. Ortiz, J. Cioslowski, 
 and D. J. Fox, Gaussian, Inc., Wallingford CT, 2013.
 
 ******************************************
 Gaussian 09:  ES64L-G09RevE.01 30-Nov-2015
                18-May-2020 
 ******************************************
 %NProcShared=4
 Will use up to    4 processors via shared memory.
 -------------------------------------
 # cisd/3-21g pop=nbo6 density=current
 -------------------------------------
 1/30=1,38=1/1;
 2/12=2,17=6,18=5,40=1/2;
 3/5=5,11=9,16=1,25=1,30=1,71=1/1,2,3;
 4//1;
 5/5=2,38=5/2;
 8/6=4,9=120000,10=1/1,4;
 9/15=1/13;
 11/28=-4,32=3,42=3/11;
 10/5=3,13=10/2;
 6/7=2,8=2,9=2,10=2,22=-1,40=1,113=1,114=1,124=3103/1,12;
 99/5=1,9=1/99;
 --------------------------------------------
 Methylamine...cisd/3-21g//idealized geometry
 --------------------------------------------
 Symbolic Z-matrix:
 Charge =  0 Multiplicity = 1
 C
 N                    1     1.47 
 H                    1     1.09     2     109.4712 
 H                    1     1.09     2     109.4712  3     120.     0
 H                    1     1.09     2     109.4712  3     240.     0
 H                    2     1.01     1     109.4712  3     60.      0
 H                    2     1.01     1     109.4712  3     300.     0
 
     5 tetrahedral angles replaced.
    5 tetrahedral angles replaced.
                          Input orientation:                          
 ---------------------------------------------------------------------
 Center     Atomic      Atomic             Coordinates (Angstroms)
 Number     Number       Type             X           Y           Z
 ---------------------------------------------------------------------
      1          6           0        0.000000    0.000000    0.000000
      2          7           0        0.000000    0.000000    1.470000
      3          1           0        1.027662    0.000000   -0.363333
      4          1           0       -0.513831   -0.889981   -0.363333
      5          1           0       -0.513831    0.889981   -0.363333
      6          1           0        0.476119    0.824662    1.806667
      7          1           0        0.476119   -0.824662    1.806667
 ---------------------------------------------------------------------
                    Distance matrix (angstroms):
                    1          2          3          4          5
     1  C    0.000000
     2  N    1.470000   0.000000
     3  H    1.090000   2.101714   0.000000
     4  H    1.090000   2.101714   1.779963   0.000000
     5  H    1.090000   2.101714   1.779963   1.779963   0.000000
     6  H    2.042254   1.010000   2.386036   2.937499   2.386036
     7  H    2.042254   1.010000   2.386036   2.386036   2.937499
                    6          7
     6  H    0.000000
     7  H    1.649323   0.000000
 Stoichiometry    CH5N
 Framework group  CS[SG(CHN),X(H4)]
 Deg. of freedom     9
 Full point group                 CS      NOp   2
 Largest Abelian subgroup         CS      NOp   2
 Largest concise Abelian subgroup CS      NOp   2
                         Standard orientation:                         
 ---------------------------------------------------------------------
 Center     Atomic      Atomic             Coordinates (Angstroms)
 Number     Number       Type             X           Y           Z
 ---------------------------------------------------------------------
      1          6           0        0.052902    0.711852   -0.000000
      2          7           0        0.052902   -0.758148    0.000000
      3          1           0       -0.974760    1.075185   -0.000000
      4          1           0        0.566733    1.075185    0.889981
      5          1           0        0.566733    1.075185   -0.889981
      6          1           0       -0.423217   -1.094815   -0.824662
      7          1           0       -0.423217   -1.094815    0.824662
 ---------------------------------------------------------------------
 Rotational constants (GHZ):    102.4371449     22.9400653     21.9429790
 Standard basis: 3-21G (6D, 7F)
 There are    20 symmetry adapted cartesian basis functions of A'  symmetry.
 There are     8 symmetry adapted cartesian basis functions of A"  symmetry.
 There are    20 symmetry adapted basis functions of A'  symmetry.
 There are     8 symmetry adapted basis functions of A"  symmetry.
    28 basis functions,    45 primitive gaussians,    28 cartesian basis functions
     9 alpha electrons        9 beta electrons
       nuclear repulsion energy        42.0501645033 Hartrees.
 NAtoms=    7 NActive=    7 NUniq=    5 SFac= 1.96D+00 NAtFMM=   60 NAOKFM=F Big=F
 Integral buffers will be    131072 words long.
 Raffenetti 1 integral format.
 Two-electron integral symmetry is turned on.
 One-electron integrals computed using PRISM.
 NBasis=    28 RedAO= T EigKep=  3.39D-02  NBF=    20     8
 NBsUse=    28 1.00D-06 EigRej= -1.00D+00 NBFU=    20     8
 ExpMin= 1.83D-01 ExpMax= 2.43D+02 ExpMxC= 2.43D+02 IAcc=1 IRadAn=         1 AccDes= 0.00D+00
 Harris functional with IExCor=  205 and IRadAn=       1 diagonalized for initial guess.
 HarFok:  IExCor=  205 AccDes= 0.00D+00 IRadAn=         1 IDoV= 1 UseB2=F ITyADJ=14
 ICtDFT=  3500011 ScaDFX=  1.000000  1.000000  1.000000  1.000000
 FoFCou: FMM=F IPFlag=           0 FMFlag=      100000 FMFlg1=           0
         NFxFlg=           0 DoJE=T BraDBF=F KetDBF=T FulRan=T
         wScrn=  0.000000 ICntrl=     500 IOpCl=  0 I1Cent=   200000004 NGrid=           0
         NMat0=    1 NMatS0=      1 NMatT0=    0 NMatD0=    1 NMtDS0=    0 NMtDT0=    0
 Petite list used in FoFCou.
 Initial guess orbital symmetries:
       Occupied  (A') (A') (A') (A') (A") (A') (A') (A") (A')
       Virtual   (A') (A") (A') (A') (A') (A") (A') (A") (A') (A')
                 (A") (A') (A') (A") (A') (A") (A') (A') (A')
 The electronic state of the initial guess is 1-A'.
 Keep R1 ints in memory in symmetry-blocked form, NReq=913171.
 Requested convergence on RMS density matrix=1.00D-08 within 128 cycles.
 Requested convergence on MAX density matrix=1.00D-06.
 Requested convergence on             energy=1.00D-06.
 No special actions if energy rises.
 SCF Done:  E(RHF) =  -94.6794449579     A.U. after   10 cycles
            NFock= 10  Conv=0.92D-08     -V/T= 2.0023
 ExpMin= 1.83D-01 ExpMax= 2.43D+02 ExpMxC= 2.43D+02 IAcc=3 IRadAn=         5 AccDes= 0.00D+00
 HarFok:  IExCor=  205 AccDes= 0.00D+00 IRadAn=         5 IDoV=-2 UseB2=F ITyADJ=14
 ICtDFT= 12500011 ScaDFX=  1.000000  1.000000  1.000000  1.000000
 Range of M.O.s used for correlation:     3    28
 NBasis=    28 NAE=     9 NBE=     9 NFC=     2 NFV=     0
 NROrb=     26 NOA=     7 NOB=     7 NVA=    19 NVB=    19
 Semi-Direct transformation.
 ModeAB=           4 MOrb=             7 LenV=      33434649
 LASXX=        23925 LTotXX=       23925 LenRXX=       51148
 LTotAB=       27223 MaxLAS=       60788 LenRXY=           0
 NonZer=       75073 LenScr=      785920 LnRSAI=       60788
 LnScr1=      785920 LExtra=           0 Total=      1683776
 MaxDsk=          -1 SrtSym=           T ITran=            4
 JobTyp=0 Pass  1:  I=   1 to   7.
 (rs|ai) integrals will be sorted in core.
 Spin components of T(2) and E(2):
     alpha-alpha T2 =       0.6579914821D-02 E2=     -0.2014499602D-01
     alpha-beta  T2 =       0.5311011647D-01 E2=     -0.1593748490D+00
     beta-beta   T2 =       0.6579914821D-02 E2=     -0.2014499602D-01
 ANorm=    0.1032603480D+01
 E2 =    -0.1996648410D+00 EUMP2 =    -0.94879109798894D+02
 Keep R2 and R3 ints in memory in symmetry-blocked form, NReq=888916.
 Iterations=  50 Convergence= 0.100D-07
 Iteration Nr.   1
 **********************
 DD1Dir will call FoFMem   1 times, MxPair=        56
 NAB=    28 NAA=     0 NBB=     0.
 E3=       -0.16615798D-01        EUMP3=      -0.94895725597D+02
 DE(CI)=     -0.20281073     E(CI)=       -94.882255686    
 NORM(A)=   0.10347445D+01
 Iteration Nr.   2
 **********************
 DD1Dir will call FoFMem   1 times, MxPair=        56
 NAB=    28 NAA=     0 NBB=     0.
 DE(CI)=     -0.20803288     E(CI)=       -94.887477842    
 NORM(A)=   0.10377655D+01
 Iteration Nr.   3
 **********************
 DD1Dir will call FoFMem   1 times, MxPair=        56
 NAB=    28 NAA=     0 NBB=     0.
 DE(CI)=     -0.20956832     E(CI)=       -94.889013279    
 NORM(A)=   0.10381381D+01
 Iteration Nr.   4
 **********************
 DD1Dir will call FoFMem   1 times, MxPair=        56
 NAB=    28 NAA=     0 NBB=     0.
 DE(CI)=     -0.20978013     E(CI)=       -94.889225092    
 NORM(A)=   0.10381323D+01
 Iteration Nr.   5
 **********************
 DD1Dir will call FoFMem   1 times, MxPair=        56
 NAB=    28 NAA=     0 NBB=     0.
 DE(CI)=     -0.20977275     E(CI)=       -94.889217703    
 NORM(A)=   0.10381315D+01
 Iteration Nr.   6
 **********************
 DD1Dir will call FoFMem   1 times, MxPair=        56
 NAB=    28 NAA=     0 NBB=     0.
 DE(CI)=     -0.20977406     E(CI)=       -94.889219023    
 NORM(A)=   0.10381342D+01
 Iteration Nr.   7
 **********************
 DD1Dir will call FoFMem   1 times, MxPair=        56
 NAB=    28 NAA=     0 NBB=     0.
 DE(CI)=     -0.20977460     E(CI)=       -94.889219559    
 NORM(A)=   0.10381344D+01
 Iteration Nr.   8
 **********************
 DD1Dir will call FoFMem   1 times, MxPair=        56
 NAB=    28 NAA=     0 NBB=     0.
 DE(CI)=     -0.20977453     E(CI)=       -94.889219491    
 NORM(A)=   0.10381343D+01
 Iteration Nr.   9
 **********************
 DD1Dir will call FoFMem   1 times, MxPair=        56
 NAB=    28 NAA=     0 NBB=     0.
 DE(CI)=     -0.20977452     E(CI)=       -94.889219476    
 NORM(A)=   0.10381343D+01
 Iteration Nr.  10
 **********************
 DD1Dir will call FoFMem   1 times, MxPair=        56
 NAB=    28 NAA=     0 NBB=     0.
 DE(CI)=     -0.20977453     E(CI)=       -94.889219486    
 NORM(A)=   0.10381343D+01
 Iteration Nr.  11
 **********************
 DD1Dir will call FoFMem   1 times, MxPair=        56
 NAB=    28 NAA=     0 NBB=     0.
 DE(CI)=     -0.20977453     E(CI)=       -94.889219489    
 NORM(A)=   0.10381343D+01
 ***************************************************************
 Largest amplitude= 3.96D-02
 Discarding MO integrals.
          Differentiating once with respect to electric field.
                with respect to dipole field.
          Electric field/nuclear overlap derivatives assumed to be zero.
 Keep R1 ints in memory in symmetry-blocked form, NReq=895026.
          There are     1 degrees of freedom in the 1st order CPHF.  IDoFFX=0 NUNeed=     1.
 LinEq1:  Iter=  0 NonCon=     1 RMS=4.67D-03 Max=2.09D-02 NDo=     1
 AX will form     1 AO Fock derivatives at one time.
 LinEq1:  Iter=  1 NonCon=     1 RMS=1.46D-03 Max=7.12D-03 NDo=     1
 LinEq1:  Iter=  2 NonCon=     1 RMS=2.62D-04 Max=1.82D-03 NDo=     1
 LinEq1:  Iter=  3 NonCon=     1 RMS=6.03D-05 Max=3.57D-04 NDo=     1
 LinEq1:  Iter=  4 NonCon=     1 RMS=1.98D-05 Max=9.67D-05 NDo=     1
 LinEq1:  Iter=  5 NonCon=     1 RMS=2.46D-06 Max=1.57D-05 NDo=     1
 LinEq1:  Iter=  6 NonCon=     1 RMS=2.19D-07 Max=1.13D-06 NDo=     1
 LinEq1:  Iter=  7 NonCon=     1 RMS=2.78D-08 Max=1.47D-07 NDo=     1
 LinEq1:  Iter=  8 NonCon=     1 RMS=3.59D-09 Max=2.65D-08 NDo=     1
 LinEq1:  Iter=  9 NonCon=     1 RMS=4.09D-10 Max=1.87D-09 NDo=     1
 LinEq1:  Iter= 10 NonCon=     0 RMS=4.30D-11 Max=1.97D-10 NDo=     1
 Linear equations converged to 1.000D-10 1.000D-09 after    10 iterations.
 End of Minotr F.D. properties file   721 does not exist.
 End of Minotr F.D. properties file   722 does not exist.
 End of Minotr F.D. properties file   788 does not exist.

 **********************************************************************

            Population analysis using the CI density.

 **********************************************************************

 Orbital symmetries:
       Occupied  (A') (A') (A') (A') (A") (A') (A') (A") (A')
       Virtual   (A') (A') (A") (A') (A") (A') (A") (A') (A') (A")
                 (A') (A') (A') (A") (A') (A") (A') (A') (A')
 The electronic state is 1-A'.
 Alpha  occ. eigenvalues --  -15.44574 -11.18262  -1.16399  -0.89202  -0.65897
 Alpha  occ. eigenvalues --   -0.59281  -0.54924  -0.51707  -0.36873
 Alpha virt. eigenvalues --    0.26633   0.32933   0.33593   0.35708   0.38211
 Alpha virt. eigenvalues --    0.45003   0.94755   0.97787   0.98732   1.25922
 Alpha virt. eigenvalues --    1.26500   1.31120   1.34071   1.38102   1.51135
 Alpha virt. eigenvalues --    1.64211   1.66479   1.96672   2.83952
          Condensed to atoms (all electrons):
               1          2          3          4          5          6
     1  C    5.190002   0.237571   0.337507   0.353677   0.353677  -0.052549
     2  N    0.237571   6.933384  -0.053196  -0.032376  -0.032376   0.318888
     3  H    0.337507  -0.053196   0.644638  -0.038175  -0.038175  -0.001971
     4  H    0.353677  -0.032376  -0.038175   0.549696  -0.023498   0.004137
     5  H    0.353677  -0.032376  -0.038175  -0.023498   0.549696  -0.003300
     6  H   -0.052549   0.318888  -0.001971   0.004137  -0.003300   0.507669
     7  H   -0.052549   0.318888  -0.001971  -0.003300   0.004137  -0.036423
               7
     1  C   -0.052549
     2  N    0.318888
     3  H   -0.001971
     4  H   -0.003300
     5  H    0.004137
     6  H   -0.036423
     7  H    0.507669
 Mulliken charges:
               1
     1  C   -0.367336
     2  N   -0.690783
     3  H    0.151343
     4  H    0.189839
     5  H    0.189839
     6  H    0.263548
     7  H    0.263548
 Sum of Mulliken charges =  -0.00000
 Mulliken charges with hydrogens summed into heavy atoms:
               1
     1  C    0.163686
     2  N   -0.163686
 Electronic spatial extent (au):  <R**2>=             94.7661
 Charge=             -0.0000 electrons
 Dipole moment (field-independent basis, Debye):
    X=             -1.5664    Y=              0.5048    Z=             -0.0000  Tot=              1.6457
 Quadrupole moment (field-independent basis, Debye-Ang):
   XX=            -14.8467   YY=            -14.3043   ZZ=            -12.5244
   XY=              2.3335   XZ=              0.0000   YZ=              0.0000
 Traceless Quadrupole moment (field-independent basis, Debye-Ang):
   XX=             -0.9549   YY=             -0.4125   ZZ=              1.3674
   XY=              2.3335   XZ=              0.0000   YZ=              0.0000
 Octapole moment (field-independent basis, Debye-Ang**2):
  XXX=             -1.4104  YYY=             -2.5234  ZZZ=             -0.0000  XYY=             -2.1555
  XXY=             -0.1492  XXZ=             -0.0000  XZZ=             -0.4305  YZZ=             -1.9218
  YYZ=             -0.0000  XYZ=             -0.0000
 Hexadecapole moment (field-independent basis, Debye-Ang**3):
 XXXX=            -22.2241 YYYY=            -73.1555 ZZZZ=            -22.2915 XXXY=             -1.0486
 XXXZ=             -0.0000 YYYX=              1.4006 YYYZ=              0.0000 ZZZX=              0.0000
 ZZZY=              0.0000 XXYY=            -16.0453 XXZZ=             -7.1510 YYZZ=            -14.0276
 XXYZ=             -0.0000 YYXZ=              0.0000 ZZXY=              1.0787
 N-N= 4.205016450329D+01 E-N=-3.054136143015D+02  KE= 9.476820755174D+01
 Symmetry A'   KE= 9.018529222979D+01
 Symmetry A"   KE= 4.582915321956D+00
 Running external command "gaunbo6 R"
         input file       "/scr/ericg/cisd/Gau-20090.EIn"
         output file      "/scr/ericg/cisd/Gau-20090.EOu"
         message file     "/scr/ericg/cisd/Gau-20090.EMs"
         fchk file        "/scr/ericg/cisd/Gau-20090.EFC"
         mat. el file     "/scr/ericg/cisd/Gau-20090.EUF"

 Writing Wrt12E file "/scr/ericg/cisd/Gau-20090.EUF"
 Gaussian matrix elements                                         Version   1 NLab= 7 Len12L=8 Len4L=8
 Write GAUSSIAN SCALARS               from file   501 offset           0 to matrix element file.
 Write OVERLAP                        from file   514 offset           0 to matrix element file.
 Write CORE HAMILTONIAN ALPHA         from file   515 offset           0 to matrix element file.
 Write CORE HAMILTONIAN BETA          from file   515 offset         406 to matrix element file.
 Write KINETIC ENERGY                 from file   516 offset           0 to matrix element file.
 Write ORTHOGONAL BASIS               from file   685 offset           0 to matrix element file.
 Write DIPOLE INTEGRALS               from file   518 offset           0 to matrix element file.
 Array DIP VEL INTEGRALS               on  file    572 does not exist.
 Array R X DEL INTEGRALS               on  file    572 does not exist.
 Write ALPHA ORBITAL ENERGIES         from file     0 offset           0 to matrix element file.
 Write ALPHA MO COEFFICIENTS          from file 10524 offset           0 to matrix element file.
 Write ALPHA DENSITY MATRIX           from file     0 offset           0 to matrix element file.
 Write ALPHA SCF DENSITY MATRIX       from file 10528 offset           0 to matrix element file.
 Write ALPHA FOCK MATRIX              from file 10536 offset           0 to matrix element file.
 Write ALPHA CI DENSITY               from file     0 offset           0 to matrix element file.
 No 2e integrals to process.
 Perform NBO analysis...executing G09NBO...

 *********************************** NBO 7.0 ***********************************
             N A T U R A L   A T O M I C   O R B I T A L   A N D
          N A T U R A L   B O N D   O R B I T A L   A N A L Y S I S
 ************************ development version (D000000) ************************
  (c) Copyright 1996-2020 Board of Regents of the University of Wisconsin System
      on behalf of the Theoretical Chemistry Institute.  All rights reserved.

          Cite this program [NBO 7.0.9 (21-May-2020)] as:

          NBO 7.0.  E. D. Glendening, J. K. Badenhoop, A. E. Reed,
          J. E. Carpenter, J. A. Bohmann, C. M. Morales, P. Karafiloglou,
          C. R. Landis, and F. Weinhold, Theoretical Chemistry Institute,
          University of Wisconsin, Madison, WI (2018)

 Filename set to /scr/ericg/cisd/Gau-20090

 Job title: Methylamine...cisd/3-21g//idealized geometry


 NATURAL POPULATIONS:  Natural atomic orbital occupancies

  NAO Atom No lang   Type(AO)    Occupancy
 ------------------------------------------
   1    C  1  s      Cor( 1s)     1.99978
   2    C  1  s      Val( 2s)     1.09350
   3    C  1  s      Ryd( 3s)     0.00202
   4    C  1  px     Val( 2p)     1.20789
   5    C  1  px     Ryd( 3p)     0.00450
   6    C  1  py     Val( 2p)     0.88981
   7    C  1  py     Ryd( 3p)     0.00456
   8    C  1  pz     Val( 2p)     1.23311
   9    C  1  pz     Ryd( 3p)     0.00428

  10    N  2  s      Cor( 1s)     1.99982
  11    N  2  s      Val( 2s)     1.42429
  12    N  2  s      Ryd( 3s)     0.00223
  13    N  2  px     Val( 2p)     1.78182
  14    N  2  px     Ryd( 3p)     0.01048
  15    N  2  py     Val( 2p)     1.29134
  16    N  2  py     Ryd( 3p)     0.00476
  17    N  2  pz     Val( 2p)     1.33161
  18    N  2  pz     Ryd( 3p)     0.00391

  19    H  3  s      Val( 1s)     0.81805
  20    H  3  s      Ryd( 2s)     0.00392

  21    H  4  s      Val( 1s)     0.78628
  22    H  4  s      Ryd( 2s)     0.00273

  23    H  5  s      Val( 1s)     0.78628
  24    H  5  s      Ryd( 2s)     0.00273

  25    H  6  s      Val( 1s)     0.65237
  26    H  6  s      Ryd( 2s)     0.00277

  27    H  7  s      Val( 1s)     0.65237
  28    H  7  s      Ryd( 2s)     0.00277


 Summary of Natural Population Analysis:

                                     Natural Population
             Natural    ---------------------------------------------
  Atom No    Charge        Core      Valence    Rydberg      Total
 --------------------------------------------------------------------
    C  1   -0.43945      1.99978     4.42431    0.01536     6.43945
    N  2   -0.85027      1.99982     5.82906    0.02138     7.85027
    H  3    0.17803      0.00000     0.81805    0.00392     0.82197
    H  4    0.21098      0.00000     0.78628    0.00273     0.78902
    H  5    0.21098      0.00000     0.78628    0.00273     0.78902
    H  6    0.34486      0.00000     0.65237    0.00277     0.65514
    H  7    0.34486      0.00000     0.65237    0.00277     0.65514
 ====================================================================
 * Total *  0.00000      3.99961    13.94872    0.05167    18.00000

                                 Natural Population
 ---------------------------------------------------------
   Core                       3.99961 ( 99.9901% of    4)
   Valence                   13.94872 ( 99.6337% of   14)
   Natural Minimal Basis     17.94833 ( 99.7129% of   18)
   Natural Rydberg Basis      0.05167 (  0.2871% of   18)
 ---------------------------------------------------------

    Atom No         Natural Electron Configuration
 ----------------------------------------------------------------------------
      C  1      [core]2s( 1.09)2p( 3.33)3p( 0.01)
      N  2      [core]2s( 1.42)2p( 4.40)3p( 0.02)
      H  3            1s( 0.82)
      H  4            1s( 0.79)
      H  5            1s( 0.79)
      H  6            1s( 0.65)
      H  7            1s( 0.65)


 NATURAL BOND ORBITAL ANALYSIS:

                            Occupancies       Lewis Structure    Low   High
         Max    Occ     -------------------  -----------------   occ   occ
  Cycle  Ctr   Thresh    Lewis   non-Lewis     CR  BD  nC  LP    (L)   (NL)
 ============================================================================
    1     2     1.90    17.80603   0.19397      2   6   0   1     0      0
 ----------------------------------------------------------------------------

 Structure accepted: No low occupancy Lewis orbitals

 -------------------------------------------------------
   Core                      3.99961 ( 99.990% of   4)
   Valence Lewis            13.80642 ( 98.617% of  14)
  ==================      =============================
   Total Lewis              17.80603 ( 98.922% of  18)
  -----------------------------------------------------
   Valence non-Lewis         0.14637 (  0.813% of  18)
   Rydberg non-Lewis         0.04760 (  0.264% of  18)
  ==================      =============================
   Total non-Lewis           0.19397 (  1.078% of  18)
 -------------------------------------------------------


     (Occupancy)   Bond orbital / Coefficients / Hybrids
 ------------------ Lewis ------------------------------------------------------
   1. (1.99978) CR ( 1) C  1            s(100.00%)
                                         1.0000  0.0000  0.0000  0.0000  0.0000
                                         0.0000  0.0000  0.0000  0.0000
   2. (1.99982) CR ( 1) N  2            s(100.00%)
                                         1.0000  0.0000  0.0000  0.0000  0.0000
                                         0.0000  0.0000  0.0000  0.0000
   3. (1.96051) LP ( 1) N  2            s( 19.12%)p 4.23( 80.88%)
                                         0.0000  0.4372 -0.0024  0.8416 -0.0213
                                        -0.3163  0.0062  0.0000  0.0000
   4. (1.97455) BD ( 1) C  1- N  2
               ( 40.39%)   0.6355* C  1 s( 21.90%)p 3.57( 78.10%)
                                         0.0000  0.4674  0.0225 -0.0044  0.0083
                                        -0.8833 -0.0277  0.0000  0.0000
               ( 59.61%)   0.7721* N  2 s( 30.45%)p 2.28( 69.55%)
                                         0.0000  0.5518  0.0002  0.0268  0.0105
                                         0.8335  0.0023  0.0000  0.0000
   5. (1.97749) BD ( 1) C  1- H  3
               ( 59.66%)   0.7724* C  1 s( 25.75%)p 2.88( 74.25%)
                                         0.0000  0.5074 -0.0074 -0.8175  0.0062
                                         0.2721  0.0087  0.0000  0.0000
               ( 40.34%)   0.6351* H  3 s(100.00%)
                                         1.0000  0.0047
   6. (1.97299) BD ( 1) C  1- H  4
               ( 60.89%)   0.7803* C  1 s( 26.20%)p 2.82( 73.80%)
                                         0.0000  0.5118 -0.0043  0.4072 -0.0017
                                         0.2687  0.0012  0.7070 -0.0109
               ( 39.11%)   0.6254* H  4 s(100.00%)
                                         1.0000  0.0020
   7. (1.97299) BD ( 1) C  1- H  5
               ( 60.89%)   0.7803* C  1 s( 26.20%)p 2.82( 73.80%)
                                         0.0000  0.5118 -0.0043  0.4072 -0.0017
                                         0.2687  0.0012 -0.7070  0.0109
               ( 39.11%)   0.6254* H  5 s(100.00%)
                                         1.0000  0.0020
   8. (1.97394) BD ( 1) N  2- H  6
               ( 67.67%)   0.8226* N  2 s( 25.20%)p 2.97( 74.80%)
                                         0.0000  0.5020  0.0008 -0.3809  0.0054
                                        -0.3202 -0.0187 -0.7070 -0.0105
               ( 32.33%)   0.5686* H  6 s(100.00%)
                                         1.0000  0.0028
   9. (1.97394) BD ( 1) N  2- H  7
               ( 67.67%)   0.8226* N  2 s( 25.20%)p 2.97( 74.80%)
                                         0.0000  0.5020  0.0008 -0.3809  0.0054
                                        -0.3202 -0.0187  0.7070  0.0105
               ( 32.33%)   0.5686* H  7 s(100.00%)
                                         1.0000  0.0028
 ---------------- non-Lewis ----------------------------------------------------
  10. (0.02222) BD*( 1) C  1- N  2
               ( 59.61%)   0.7721* C  1 s( 21.90%)p 3.57( 78.10%)
                                         0.0000  0.4674  0.0225 -0.0044  0.0083
                                        -0.8833 -0.0277  0.0000  0.0000
               ( 40.39%)  -0.6355* N  2 s( 30.45%)p 2.28( 69.55%)
                                         0.0000  0.5518  0.0002  0.0268  0.0105
                                         0.8335  0.0023  0.0000  0.0000
  11. (0.03416) BD*( 1) C  1- H  3
               ( 40.34%)   0.6351* C  1 s( 25.75%)p 2.88( 74.25%)
                                         0.0000 -0.5074  0.0074  0.8175 -0.0062
                                        -0.2721 -0.0087  0.0000  0.0000
               ( 59.66%)  -0.7724* H  3 s(100.00%)
                                        -1.0000 -0.0047
  12. (0.02402) BD*( 1) C  1- H  4
               ( 39.11%)   0.6254* C  1 s( 26.20%)p 2.82( 73.80%)
                                         0.0000 -0.5118  0.0043 -0.4072  0.0017
                                        -0.2687 -0.0012 -0.7070  0.0109
               ( 60.89%)  -0.7803* H  4 s(100.00%)
                                        -1.0000 -0.0020
  13. (0.02402) BD*( 1) C  1- H  5
               ( 39.11%)   0.6254* C  1 s( 26.20%)p 2.82( 73.80%)
                                         0.0000 -0.5118  0.0043 -0.4072  0.0017
                                        -0.2687 -0.0012  0.7070 -0.0109
               ( 60.89%)  -0.7803* H  5 s(100.00%)
                                        -1.0000 -0.0020
  14. (0.02097) BD*( 1) N  2- H  6
               ( 32.33%)   0.5686* N  2 s( 25.20%)p 2.97( 74.80%)
                                         0.0000 -0.5020 -0.0008  0.3809 -0.0054
                                         0.3202  0.0187  0.7070  0.0105
               ( 67.67%)  -0.8226* H  6 s(100.00%)
                                        -1.0000 -0.0028
  15. (0.02097) BD*( 1) N  2- H  7
               ( 32.33%)   0.5686* N  2 s( 25.20%)p 2.97( 74.80%)
                                         0.0000 -0.5020 -0.0008  0.3809 -0.0054
                                         0.3202  0.0187 -0.7070 -0.0105
               ( 67.67%)  -0.8226* H  7 s(100.00%)
                                        -1.0000 -0.0028
  16. (0.00469) RY ( 1) C  1            s(  0.09%)p99.99( 99.91%)
                                         0.0000 -0.0083  0.0284  0.0024  0.8588
                                         0.0204 -0.5111  0.0000  0.0000
  17. (0.00407) RY ( 2) C  1            s(  0.00%)p 1.00(100.00%)
                                         0.0000  0.0000  0.0000  0.0000  0.0000
                                         0.0000  0.0000  0.0154  0.9999
  18. (0.00352) RY ( 3) C  1            s(  0.17%)p99.99( 99.83%)
                                         0.0000 -0.0037  0.0413 -0.0086 -0.5122
                                         0.0212 -0.8575  0.0000  0.0000
  19. (0.00153) RY ( 4) C  1            s( 99.69%)p 0.00(  0.31%)
                                         0.0000 -0.0020  0.9984 -0.0022 -0.0034
                                         0.0228  0.0507  0.0000  0.0000
  20. (0.01063) RY ( 1) N  2            s(  5.17%)p18.34( 94.83%)
                                         0.0000 -0.0064  0.2273  0.0269  0.9200
                                        -0.0074 -0.3180  0.0000  0.0000
  21. (0.00352) RY ( 2) N  2            s(  0.00%)p 1.00(100.00%)
                                         0.0000  0.0000  0.0000  0.0000  0.0000
                                         0.0000  0.0000 -0.0149  0.9999
  22. (0.00294) RY ( 3) N  2            s(  1.37%)p72.01( 98.63%)
                                         0.0000 -0.0131  0.1163  0.0109 -0.3502
                                         0.0152 -0.9291  0.0000  0.0000
  23. (0.00174) RY ( 4) N  2            s( 93.48%)p 0.07(  6.52%)
                                         0.0000  0.0033  0.9669 -0.0049 -0.1742
                                        -0.0005  0.1866  0.0000  0.0000
  24. (0.00394) RY ( 1) H  3            s(100.00%)
                                        -0.0047  1.0000
  25. (0.00274) RY ( 1) H  4            s(100.00%)
                                        -0.0020  1.0000
  26. (0.00274) RY ( 1) H  5            s(100.00%)
                                        -0.0020  1.0000
  27. (0.00277) RY ( 1) H  6            s(100.00%)
                                        -0.0028  1.0000
  28. (0.00277) RY ( 1) H  7            s(100.00%)
                                        -0.0028  1.0000


 NHO DIRECTIONALITY AND BOND BENDING (deviation from line of nuclear centers at
                                      the position of maximum hybrid amplitude)

         [Thresholds for printing:  angular deviation  >  1.0 degree]
                                    p- or d-character  > 25.0%
                                    orbital occupancy  >  0.10e

                        Line of Centers        Hybrid 1             Hybrid 2
                        ---------------  -------------------  ------------------
           NBO            Theta   Phi    Theta   Phi    Dev   Theta   Phi    Dev
 ===============================================================================
   3. LP ( 1) N  2          --     --     90.0  340.0   --      --     --    --
   4. BD ( 1) C  1- N  2   90.0  270.0     --     --    --     90.0   88.4   1.6
   6. BD ( 1) C  1- H  4   35.3   35.3    34.8   33.2   1.2     --     --    --
   7. BD ( 1) C  1- H  5  144.7   35.3   145.2   33.2   1.2     --     --    --
   8. BD ( 1) N  2- H  6  144.7  215.3   144.8  220.0   2.7     --     --    --
   9. BD ( 1) N  2- H  7   35.3  215.3    35.2  220.0   2.7     --     --    --


 NATURAL BOND ORBITALS (Summary):

           NBO                 Occupancy
 ========================================
 Molecular unit  1  (CH5N)
 ------ Lewis ---------------------------
    1. CR ( 1) C  1             1.99978
    2. CR ( 1) N  2             1.99982
    3. LP ( 1) N  2             1.96051
    4. BD ( 1) C  1- N  2       1.97455
    5. BD ( 1) C  1- H  3       1.97749
    6. BD ( 1) C  1- H  4       1.97299
    7. BD ( 1) C  1- H  5       1.97299
    8. BD ( 1) N  2- H  6       1.97394
    9. BD ( 1) N  2- H  7       1.97394
 ------ non-Lewis -----------------------
   10. BD*( 1) C  1- N  2       0.02222
   11. BD*( 1) C  1- H  3       0.03416
   12. BD*( 1) C  1- H  4       0.02402
   13. BD*( 1) C  1- H  5       0.02402
   14. BD*( 1) N  2- H  6       0.02097
   15. BD*( 1) N  2- H  7       0.02097
   16. RY ( 1) C  1             0.00469
   17. RY ( 2) C  1             0.00407
   18. RY ( 3) C  1             0.00352
   19. RY ( 4) C  1             0.00153
   20. RY ( 1) N  2             0.01063
   21. RY ( 2) N  2             0.00352
   22. RY ( 3) N  2             0.00294
   23. RY ( 4) N  2             0.00174
   24. RY ( 1) H  3             0.00394
   25. RY ( 1) H  4             0.00274
   26. RY ( 1) H  5             0.00274
   27. RY ( 1) H  6             0.00277
   28. RY ( 1) H  7             0.00277
          -------------------------------
                 Total Lewis   17.80603  ( 98.9224%)
           Valence non-Lewis    0.14637  (  0.8132%)
           Rydberg non-Lewis    0.04760  (  0.2645%)
          -------------------------------
               Total unit  1   18.00000  (100.0000%)
              Charge unit  1    0.00000

 $CHOOSE
   LONE 2 1 END
   BOND S 1 2 S 1 3 S 1 4 S 1 5 S 2 6 S 2 7 END
 $END

 NBO analysis completed in 0.05 CPU seconds (0 wall seconds)
 Maximum scratch memory used by NBO was 240575 words (1.84 MB)
 Maximum scratch memory used by G09NBO was 9478 words (0.07 MB)

 Read Unf file /scr/ericg/cisd/Gau-20090.EUF:
 Label Gaussian matrix elements                                         IVers= 1 NLab= 2 Version=ES64L-G09RevE.01
 Title Methylamine...cisd/3-21g//idealized geometry                    
 NAtoms=     7 NBasis=    28 NBsUse=    28 ICharg=     0 Multip=     1 NE=    18 Len12L=8 Len4L=8
 Label GAUSSIAN SCALARS                                                 NI= 1 NR= 1 NTot=       1 LenBuf=    2000 N=    1000       1       1       1       1
 Label NPA CHARGES                                                      NI= 0 NR= 1 NTot=       7 LenBuf=    4000 N=       7       0       0       0       0
 Recovered energy= -94.8892194825     dipole=      0.000000000000      0.000000000000      0.000000000000
 1\1\GINC-NEUTRON\SP\RCISD-FC\3-21G\C1H5N1\ERICG\18-May-2020\0\\# cisd/
 3-21g pop=nbo6 density=current\\Methylamine...cisd/3-21g//idealized ge
 ometry\\0,1\C\N,1,1.47\H,1,1.09,2,109.47122063\H,1,1.09,2,109.47122063
 ,3,120.,0\H,1,1.09,2,109.47122063,3,240.,0\H,2,1.01,1,109.47122063,3,6
 0.,0\H,2,1.01,1,109.47122063,3,300.,0\\Version=ES64L-G09RevE.01\State=
 1-A'\HF=-94.679445\MP2=-94.8791098\MP3=-94.8957256\CISD=-94.8892195\RM
 SD=9.167e-09\Dipole=0.6162694,0.,-0.1985972\Quadrupole=-0.7099203,1.01
 66209,-0.3067006,0.,1.7349105,0.\PG=CS [SG(C1H1N1),X(H4)]\\@


 KNOWLEDGE IS OF TWO KINDS:  WE KNOW A SUBJECT OURSELVES OR WE KNOW 
 WHERE WE CAN FIND INFORMATION UPON IT.

                                    -- SAMUEL JOHNSON
 Job cpu time:       0 days  0 hours  0 minutes  6.6 seconds.
 File lengths (MBytes):  RWF=     19 Int=      0 D2E=      0 Chk=      1 Scr=      1
 Normal termination of Gaussian 09 at Mon May 18 14:18:04 2020.
