 Entering Gaussian System, Link 0=g09
 Initial command:
 /opt/g09.e01/g09/l1.exe "/scr/ericg/h2o/Gau-23604.inp" -scrdir="/scr/ericg/h2o/"
 Entering Link 1 = /opt/g09.e01/g09/l1.exe PID=     23606.
  
 Copyright (c) 1988,1990,1992,1993,1995,1998,2003,2009,2015,
            Gaussian, Inc.  All Rights Reserved.
  
 This is part of the Gaussian(R) 09 program.  It is based on
 the Gaussian(R) 03 system (copyright 2003, Gaussian, Inc.),
 the Gaussian(R) 98 system (copyright 1998, Gaussian, Inc.),
 the Gaussian(R) 94 system (copyright 1995, Gaussian, Inc.),
 the Gaussian 92(TM) system (copyright 1992, Gaussian, Inc.),
 the Gaussian 90(TM) system (copyright 1990, Gaussian, Inc.),
 the Gaussian 88(TM) system (copyright 1988, Gaussian, Inc.),
 the Gaussian 86(TM) system (copyright 1986, Carnegie Mellon
 University), and the Gaussian 82(TM) system (copyright 1983,
 Carnegie Mellon University). Gaussian is a federally registered
 trademark of Gaussian, Inc.
  
 This software contains proprietary and confidential information,
 including trade secrets, belonging to Gaussian, Inc.
  
 This software is provided under written license and may be
 used, copied, transmitted, or stored only in accord with that
 written license.
  
 The following legend is applicable only to US Government
 contracts under FAR:
  
                    RESTRICTED RIGHTS LEGEND
  
 Use, reproduction and disclosure by the US Government is
 subject to restrictions as set forth in subparagraphs (a)
 and (c) of the Commercial Computer Software - Restricted
 Rights clause in FAR 52.227-19.
  
 Gaussian, Inc.
 340 Quinnipiac St., Bldg. 40, Wallingford CT 06492
  
  
 ---------------------------------------------------------------
 Warning -- This program may not be used in any manner that
 competes with the business of Gaussian, Inc. or will provide
 assistance to any competitor of Gaussian, Inc.  The licensee
 of this program is prohibited from giving any competitor of
 Gaussian, Inc. access to this program.  By using this program,
 the user acknowledges that Gaussian, Inc. is engaged in the
 business of creating and licensing software in the field of
 computational chemistry and represents and warrants to the
 licensee that it is not a competitor of Gaussian, Inc. and that
 it will not use this program in any manner prohibited above.
 ---------------------------------------------------------------
  

 Cite this work as:
 Gaussian 09, Revision E.01,
 M. J. Frisch, G. W. Trucks, H. B. Schlegel, G. E. Scuseria, 
 M. A. Robb, J. R. Cheeseman, G. Scalmani, V. Barone, B. Mennucci, 
 G. A. Petersson, H. Nakatsuji, M. Caricato, X. Li, H. P. Hratchian, 
 A. F. Izmaylov, J. Bloino, G. Zheng, J. L. Sonnenberg, M. Hada, 
 M. Ehara, K. Toyota, R. Fukuda, J. Hasegawa, M. Ishida, T. Nakajima, 
 Y. Honda, O. Kitao, H. Nakai, T. Vreven, J. A. Montgomery, Jr., 
 J. E. Peralta, F. Ogliaro, M. Bearpark, J. J. Heyd, E. Brothers, 
 K. N. Kudin, V. N. Staroverov, T. Keith, R. Kobayashi, J. Normand, 
 K. Raghavachari, A. Rendell, J. C. Burant, S. S. Iyengar, J. Tomasi, 
 M. Cossi, N. Rega, J. M. Millam, M. Klene, J. E. Knox, J. B. Cross, 
 V. Bakken, C. Adamo, J. Jaramillo, R. Gomperts, R. E. Stratmann, 
 O. Yazyev, A. J. Austin, R. Cammi, C. Pomelli, J. W. Ochterski, 
 R. L. Martin, K. Morokuma, V. G. Zakrzewski, G. A. Voth, 
 P. Salvador, J. J. Dannenberg, S. Dapprich, A. D. Daniels, 
 O. Farkas, J. B. Foresman, J. V. Ortiz, J. Cioslowski, 
 and D. J. Fox, Gaussian, Inc., Wallingford CT, 2013.
 
 ******************************************
 Gaussian 09:  ES64L-G09RevE.01 30-Nov-2015
                18-May-2020 
 ******************************************
 %NProcShared=4
 Will use up to    4 processors via shared memory.
 %mem=2gb
 ----------------------
 # rhf/cc-pV6Z pop=nbo6
 ----------------------
 1/38=1/1;
 2/12=2,17=6,18=5,40=1/2;
 3/5=16,6=4,11=1,16=1,25=1,30=1,116=1/1,2,3;
 4//1;
 5/5=2,38=5/2;
 6/7=2,8=2,9=2,10=2,28=1,40=1,113=1,114=1,124=3103/1,12;
 99/5=1,9=1/99;
 ------------------------------
 Water...rhf/cc-pV6Z//idealized
 ------------------------------
 Symbolic Z-matrix:
 Charge =  0 Multiplicity = 1
 O                     0.        0.        0.11085 
 H                     0.        0.78384  -0.44341 
 H                     0.       -0.78384  -0.44341 
 
                          Input orientation:                          
 ---------------------------------------------------------------------
 Center     Atomic      Atomic             Coordinates (Angstroms)
 Number     Number       Type             X           Y           Z
 ---------------------------------------------------------------------
      1          8           0        0.000000    0.000000    0.110851
      2          1           0        0.000000    0.783837   -0.443405
      3          1           0        0.000000   -0.783837   -0.443405
 ---------------------------------------------------------------------
                    Distance matrix (angstroms):
                    1          2          3
     1  O    0.000000
     2  H    0.960000   0.000000
     3  H    0.960000   1.567674   0.000000
 Stoichiometry    H2O
 Framework group  C2V[C2(O),SGV(H2)]
 Deg. of freedom     2
 Full point group                 C2V     NOp   4
 Largest Abelian subgroup         C2V     NOp   4
 Largest concise Abelian subgroup C2      NOp   2
                         Standard orientation:                         
 ---------------------------------------------------------------------
 Center     Atomic      Atomic             Coordinates (Angstroms)
 Number     Number       Type             X           Y           Z
 ---------------------------------------------------------------------
      1          8           0        0.000000   -0.000000    0.110851
      2          1           0        0.000000    0.783837   -0.443405
      3          1           0       -0.000000   -0.783837   -0.443405
 ---------------------------------------------------------------------
 Rotational constants (GHZ):    919.0235795    408.0849114    282.5990931
 Standard basis: CC-pV6Z (5D, 7F)
 There are   160 symmetry adapted cartesian basis functions of A1  symmetry.
 There are    76 symmetry adapted cartesian basis functions of A2  symmetry.
 There are    96 symmetry adapted cartesian basis functions of B1  symmetry.
 There are   130 symmetry adapted cartesian basis functions of B2  symmetry.
 There are   106 symmetry adapted basis functions of A1  symmetry.
 There are    57 symmetry adapted basis functions of A2  symmetry.
 There are    69 symmetry adapted basis functions of B1  symmetry.
 There are    90 symmetry adapted basis functions of B2  symmetry.
   322 basis functions,   497 primitive gaussians,   462 cartesian basis functions
     5 alpha electrons        5 beta electrons
       nuclear repulsion energy         9.1571750414 Hartrees.
 NAtoms=    3 NActive=    3 NUniq=    2 SFac= 2.25D+00 NAtFMM=   60 NAOKFM=F Big=F
 Integral buffers will be    131072 words long.
 Raffenetti 1 integral format.
 Two-electron integral symmetry is turned on.
 One-electron integrals computed using PRISM.
 PrsmSu:  requested number of processors reduced to:   2 ShMem   1 Linda.
 NBasis=   322 RedAO= T EigKep=  1.56D-05  NBF=   106    57    69    90
 NBsUse=   322 1.00D-06 EigRej= -1.00D+00 NBFU=   106    57    69    90
 ExpMin= 6.22D-02 ExpMax= 5.71D+05 ExpMxC= 6.49D+02 IAcc=2 IRadAn=         4 AccDes= 0.00D+00
 Harris functional with IExCor=  205 and IRadAn=       4 diagonalized for initial guess.
 HarFok:  IExCor=  205 AccDes= 0.00D+00 IRadAn=         4 IDoV= 1 UseB2=F ITyADJ=14
 ICtDFT=  3500011 ScaDFX=  1.000000  1.000000  1.000000  1.000000
 FoFCou: FMM=F IPFlag=           0 FMFlag=      100000 FMFlg1=           0
         NFxFlg=           0 DoJE=T BraDBF=F KetDBF=T FulRan=T
         wScrn=  0.000000 ICntrl=     500 IOpCl=  0 I1Cent=   200000004 NGrid=           0
         NMat0=    1 NMatS0=      1 NMatT0=    0 NMatD0=    1 NMtDS0=    0 NMtDT0=    0
 Petite list used in FoFCou.
 Initial guess orbital symmetries:
       Occupied  (A1) (A1) (B2) (A1) (B1)
       Virtual   (A1) (B2) (A1) (B1) (B2) (A1) (B2) (A1) (A2) (A1)
                 (B1) (B2) (A1) (B2) (A1) (B2) (A1) (B1) (B1) (A2)
                 (A1) (B2) (B1) (A1) (A1) (B2) (A2) (B1) (B2) (A1)
                 (A2) (B2) (A1) (B2) (A1) (B2) (B1) (A2) (A1) (A1)
                 (B2) (B1) (A2) (A1) (B1) (B2) (A1) (A1) (B1) (B2)
                 (B2) (A1) (A2) (A1) (B2) (B1) (B1) (A1) (B2) (A2)
                 (B1) (A2) (A1) (A1) (B2) (B2) (A2) (A1) (B1) (B2)
                 (A1) (A1) (A2) (B2) (B1) (B2) (B1) (B2) (A1) (A2)
                 (B2) (A1) (B1) (A2) (A1) (A1) (B2) (B1) (A1) (A2)
                 (B1) (B2) (A1) (A1) (B1) (B2) (A1) (A2) (B2) (A2)
                 (B1) (A1) (A1) (B2) (A1) (B1) (B2) (A1) (B1) (A2)
                 (B2) (A1) (A2) (B1) (B2) (B1) (B2) (A2) (A1) (B2)
                 (A1) (B2) (B1) (A2) (A2) (B2) (B1) (A1) (A1) (B1)
                 (A1) (B2) (B2) (A2) (A1) (A1) (B1) (B2) (B2) (A1)
                 (A2) (B1) (A2) (A1) (B1) (B2) (A2) (A1) (A1) (A2)
                 (B2) (B1) (B2) (A1) (B2) (B2) (B1) (A1) (B1) (A1)
                 (A2) (A1) (B1) (B2) (B2) (A2) (A1) (B1) (A1) (B2)
                 (A1) (A2) (B1) (A2) (B2) (B1) (A1) (A1) (B1) (A2)
                 (B2) (B2) (A1) (B1) (A2) (B2) (A1) (A1) (B2) (B1)
                 (A1) (B2) (A1) (B1) (A2) (B2) (A2) (A1) (B1) (B2)
                 (A2) (A2) (A1) (B2) (A1) (B2) (B1) (B1) (A1) (B2)
                 (B1) (A1) (A1) (A2) (A2) (B2) (B2) (B1) (A2) (A1)
                 (B1) (B2) (A1) (A1) (B2) (A2) (B1) (A1) (B1) (A2)
                 (B2) (A2) (A1) (B2) (B1) (A1) (B2) (A1) (B1) (A2)
                 (B1) (B2) (A1) (A2) (A1) (B2) (B2) (A1) (B1) (A2)
                 (B2) (A1) (B1) (A2) (B2) (A1) (A2) (A1) (B2) (A2)
                 (B1) (A1) (B1) (B2) (A2) (B2) (A1) (A1) (B1) (B2)
                 (A1) (B1) (B1) (B2) (A1) (A2) (A2) (B2) (B1) (B2)
                 (A1) (B1) (A2) (B2) (A1) (A1) (B2) (A1) (B1) (B2)
                 (A1) (B1) (A1) (A2) (B1) (A1) (B2) (A2) (B2) (A1)
                 (B1) (A2) (B2) (A1) (B2) (B1) (A2) (A1) (A1) (B2)
                 (B1) (A2) (B2) (A1) (A1) (B2) (A1)
 The electronic state of the initial guess is 1-A1.
 Requested convergence on RMS density matrix=1.00D-08 within 128 cycles.
 Requested convergence on MAX density matrix=1.00D-06.
 Requested convergence on             energy=1.00D-06.
 No special actions if energy rises.
 Integral accuracy reduced to 1.0D-05 until final iterations.
 Initial convergence to 1.0D-05 achieved.  Increase integral accuracy.
 SCF Done:  E(RHF) =  -76.0668426584     A.U. after   10 cycles
            NFock= 10  Conv=0.37D-08     -V/T= 2.0011

 **********************************************************************

            Population analysis using the SCF density.

 **********************************************************************

 Orbital symmetries:
       Occupied  (A1) (A1) (B2) (A1) (B1)
       Virtual   (A1) (B2) (A1) (B1) (B2) (A1) (B2) (A1) (A2) (A1)
                 (B1) (B2) (A1) (B2) (B2) (A1) (B1) (A1) (A2) (B1)
                 (A1) (B2) (B1) (A1) (A1) (B2) (A2) (B2) (B1) (A1)
                 (A2) (B2) (A1) (B2) (A1) (B2) (B1) (A2) (A1) (B2)
                 (A1) (B1) (A1) (A2) (B1) (B2) (A1) (B2) (A1) (B1)
                 (B2) (A1) (A2) (A1) (B2) (B1) (B1) (A1) (B2) (A2)
                 (B1) (A1) (A2) (A1) (B2) (A2) (B2) (B1) (B2) (A1)
                 (A1) (B2) (A1) (A2) (B1) (B2) (A1) (B1) (B2) (A2)
                 (B2) (A1) (B1) (A2) (A1) (B2) (A1) (B1) (A1) (A2)
                 (B2) (B1) (A1) (A1) (B2) (B1) (A1) (B2) (A2) (A2)
                 (B1) (A1) (A1) (B2) (B1) (A1) (B2) (A1) (A2) (B2)
                 (B1) (A1) (A2) (B2) (B1) (B1) (B2) (A1) (A2) (B2)
                 (A1) (B1) (A2) (B2) (B2) (A2) (A1) (B1) (A1) (A1)
                 (B1) (B2) (A2) (A1) (B2) (B1) (A1) (B2) (A1) (B2)
                 (A2) (B1) (A2) (B2) (B1) (A1) (A2) (A1) (A2) (A1)
                 (B2) (B1) (B2) (A1) (B2) (B2) (B1) (A1) (B1) (A1)
                 (A2) (A1) (B2) (B1) (B2) (A2) (A1) (B1) (A1) (B2)
                 (A1) (B1) (A2) (A2) (B2) (B1) (A1) (A1) (B1) (A2)
                 (B2) (B2) (A1) (B1) (A1) (B2) (A2) (A1) (B2) (B1)
                 (A1) (B1) (B2) (A2) (B2) (A1) (A2) (A1) (B1) (B2)
                 (A2) (A2) (A1) (B2) (A1) (B1) (B2) (B1) (A1) (B1)
                 (A1) (B2) (A2) (B2) (A1) (B2) (A2) (B1) (A1) (B2)
                 (B1) (A2) (A1) (A2) (B1) (B1) (A1) (B2) (A2) (A1)
                 (B2) (A2) (A1) (B2) (B1) (A1) (B2) (A1) (A2) (B1)
                 (B1) (B2) (A1) (A2) (A1) (B2) (B2) (A1) (A2) (B1)
                 (B2) (B1) (A1) (B2) (A1) (A2) (A2) (A1) (B2) (B1)
                 (A2) (A1) (B2) (B1) (A2) (B2) (A1) (A1) (B1) (B2)
                 (A1) (B1) (B1) (B2) (A1) (A2) (B2) (A2) (B1) (B2)
                 (A1) (B1) (B2) (A2) (A1) (A1) (B2) (A1) (B1) (B2)
                 (A1) (B1) (A1) (A2) (B1) (A1) (B2) (A2) (B2) (A1)
                 (A2) (B1) (B2) (A1) (B2) (B1) (A2) (A1) (A1) (B2)
                 (B1) (A2) (B2) (A1) (A1) (B2) (A1)
 The electronic state is 1-A1.
 Alpha  occ. eigenvalues --  -20.56192  -1.34754  -0.72534  -0.57465  -0.50868
 Alpha virt. eigenvalues --    0.07049   0.10830   0.24228   0.26863   0.28832
 Alpha virt. eigenvalues --    0.30874   0.39444   0.41676   0.46832   0.49064
 Alpha virt. eigenvalues --    0.51752   0.63467   0.65774   0.66932   0.76219
 Alpha virt. eigenvalues --    0.78104   0.98377   0.98676   1.01101   1.03063
 Alpha virt. eigenvalues --    1.05314   1.10456   1.19843   1.21232   1.27168
 Alpha virt. eigenvalues --    1.28962   1.33274   1.44307   1.44793   1.46188
 Alpha virt. eigenvalues --    1.51375   1.55304   1.56388   1.58400   1.68915
 Alpha virt. eigenvalues --    1.72280   1.83236   1.83401   1.98518   2.08609
 Alpha virt. eigenvalues --    2.11173   2.29950   2.30658   2.31426   2.33984
 Alpha virt. eigenvalues --    2.43365   2.52382   2.60851   2.61945   2.63456
 Alpha virt. eigenvalues --    2.78209   2.80109   2.86103   2.95267   2.98393
 Alpha virt. eigenvalues --    3.08652   3.14391   3.17175   3.42182   3.42643
 Alpha virt. eigenvalues --    3.51508   3.62092   3.64235   3.67371   3.76150
 Alpha virt. eigenvalues --    3.76277   3.80038   3.84174   3.86194   3.89897
 Alpha virt. eigenvalues --    3.96712   4.04834   4.06896   4.07849   4.13556
 Alpha virt. eigenvalues --    4.30495   4.43534   4.45632   4.47489   4.51488
 Alpha virt. eigenvalues --    4.59461   4.71701   4.72592   4.80393   5.08555
 Alpha virt. eigenvalues --    5.14561   5.20006   5.35540   5.36307   5.44563
 Alpha virt. eigenvalues --    5.47027   5.53697   5.54549   5.67236   5.77167
 Alpha virt. eigenvalues --    5.78280   5.95143   6.08239   6.10416   6.14284
 Alpha virt. eigenvalues --    6.22558   6.26958   6.54152   6.54226   6.74281
 Alpha virt. eigenvalues --    6.75488   6.93978   7.05765   7.11215   7.16546
 Alpha virt. eigenvalues --    7.28547   7.63342   7.67309   7.69392   7.70254
 Alpha virt. eigenvalues --    7.83177   8.02884   8.04037   8.07213   8.28942
 Alpha virt. eigenvalues --    8.53025   8.61954   8.64222   8.64751   8.66783
 Alpha virt. eigenvalues --    8.71585   8.72011   8.79350   8.83710   8.87023
 Alpha virt. eigenvalues --    8.87208   8.87320   9.12066   9.13675   9.14130
 Alpha virt. eigenvalues --    9.17695   9.19249   9.22111   9.41290   9.44809
 Alpha virt. eigenvalues --    9.47297   9.67681   9.74723   9.79075   9.81002
 Alpha virt. eigenvalues --    9.82912   9.96109  10.00369  10.28311  10.33083
 Alpha virt. eigenvalues --   10.37068  10.49821  10.62163  10.69570  10.90429
 Alpha virt. eigenvalues --   11.02207  11.11243  11.19102  11.53542  11.67531
 Alpha virt. eigenvalues --   11.74246  11.79762  12.01395  12.09290  12.13784
 Alpha virt. eigenvalues --   12.26601  12.59079  12.78171  12.82214  13.07502
 Alpha virt. eigenvalues --   13.21529  13.30370  13.30375  13.38896  13.46793
 Alpha virt. eigenvalues --   13.48229  13.55637  13.64596  13.92249  14.01983
 Alpha virt. eigenvalues --   14.06349  14.28545  14.36388  14.42518  14.46630
 Alpha virt. eigenvalues --   14.52015  14.52337  15.28646  15.89076  16.61170
 Alpha virt. eigenvalues --   16.91020  16.92695  16.96769  16.99273  17.00327
 Alpha virt. eigenvalues --   17.02102  17.24078  17.36375  17.37140  17.53640
 Alpha virt. eigenvalues --   17.74990  17.88948  18.35085  18.46140  18.82739
 Alpha virt. eigenvalues --   19.14314  19.16879  19.61279  19.64168  19.81036
 Alpha virt. eigenvalues --   19.87590  19.93376  19.98322  20.01954  20.10667
 Alpha virt. eigenvalues --   20.13731  20.16729  20.29568  20.39247  20.43443
 Alpha virt. eigenvalues --   20.45109  20.46496  20.55564  20.63292  20.65858
 Alpha virt. eigenvalues --   20.69912  20.70997  20.71883  20.72820  20.82512
 Alpha virt. eigenvalues --   20.84109  20.97559  21.05911  21.31770  21.50939
 Alpha virt. eigenvalues --   21.56528  21.76579  21.95903  22.26245  22.32140
 Alpha virt. eigenvalues --   22.39775  22.53371  22.66469  22.66663  22.77310
 Alpha virt. eigenvalues --   22.86883  23.20008  23.47218  23.49260  23.64545
 Alpha virt. eigenvalues --   23.69558  23.85349  23.88876  23.92343  23.92603
 Alpha virt. eigenvalues --   23.98954  24.52010  24.70636  24.79283  24.99636
 Alpha virt. eigenvalues --   25.03853  25.12542  25.45166  25.56937  25.78649
 Alpha virt. eigenvalues --   25.87250  25.97675  26.32124  26.41369  26.43354
 Alpha virt. eigenvalues --   26.49087  26.56606  26.73126  26.88948  26.95390
 Alpha virt. eigenvalues --   27.05653  27.29769  27.38999  27.42891  27.72949
 Alpha virt. eigenvalues --   27.95202  28.01372  28.31857  28.32757  28.40379
 Alpha virt. eigenvalues --   28.58343  28.67123  29.16104  29.70528  30.04822
 Alpha virt. eigenvalues --   31.78497  32.10249  32.34008  32.45404  32.49428
 Alpha virt. eigenvalues --   32.72747  32.94748  33.42449  33.51482  33.91302
 Alpha virt. eigenvalues --   34.06806  34.11115  34.64281  34.73146  35.09938
 Alpha virt. eigenvalues --   35.39027  35.41716  35.85063  37.75937  38.18370
 Alpha virt. eigenvalues --   38.49286  39.38015  39.65206  39.70694  40.86838
 Alpha virt. eigenvalues --   41.34083 108.04187
          Condensed to atoms (all electrons):
               1          2          3
     1  O    7.819787   0.290992   0.290992
     2  H    0.290992   0.491211   0.016911
     3  H    0.290992   0.016911   0.491211
 Mulliken charges:
               1
     1  O   -0.401772
     2  H    0.200886
     3  H    0.200886
 Sum of Mulliken charges =  -0.00000
 Mulliken charges with hydrogens summed into heavy atoms:
               1
     1  O   -0.000000
 Electronic spatial extent (au):  <R**2>=             19.4814
 Charge=             -0.0000 electrons
 Dipole moment (field-independent basis, Debye):
    X=             -0.0000    Y=              0.0000    Z=             -1.9099  Tot=              1.9099
 Quadrupole moment (field-independent basis, Debye-Ang):
   XX=             -7.5461   YY=             -4.0101   ZZ=             -6.3839
   XY=              0.0000   XZ=              0.0000   YZ=              0.0000
 Traceless Quadrupole moment (field-independent basis, Debye-Ang):
   XX=             -1.5661   YY=              1.9699   ZZ=             -0.4039
   XY=              0.0000   XZ=              0.0000   YZ=              0.0000
 Octapole moment (field-independent basis, Debye-Ang**2):
  XXX=              0.0000  YYY=              0.0000  ZZZ=             -1.0764  XYY=             -0.0000
  XXY=              0.0000  XXZ=             -0.2616  XZZ=              0.0000  YZZ=              0.0000
  YYZ=             -1.4247  XYZ=             -0.0000
 Hexadecapole moment (field-independent basis, Debye-Ang**3):
 XXXX=             -6.6192 YYYY=             -5.7350 ZZZZ=             -7.1685 XXXY=             -0.0000
 XXXZ=             -0.0000 YYYX=              0.0000 YYYZ=             -0.0000 ZZZX=             -0.0000
 ZZZY=             -0.0000 XXYY=             -2.4481 XXZZ=             -2.3428 YYZZ=             -1.8656
 XXYZ=             -0.0000 YYXZ=              0.0000 ZZXY=             -0.0000
 N-N= 9.157175041448D+00 E-N=-1.989923867280D+02  KE= 7.598060802118D+01
 Symmetry A1   KE= 6.794495069091D+01
 Symmetry A2   KE= 7.915139448585D-21
 Symmetry B1   KE= 4.474465550997D+00
 Symmetry B2   KE= 3.561191779272D+00
 Running external command "gaunbo6 R"
         input file       "/scr/ericg/h2o/Gau-23606.EIn"
         output file      "/scr/ericg/h2o/Gau-23606.EOu"
         message file     "/scr/ericg/h2o/Gau-23606.EMs"
         fchk file        "/scr/ericg/h2o/Gau-23606.EFC"
         mat. el file     "/scr/ericg/h2o/Gau-23606.EUF"

 Writing Wrt12E file "/scr/ericg/h2o/Gau-23606.EUF"
 Gaussian matrix elements                                         Version   1 NLab= 7 Len12L=8 Len4L=8
 Write GAUSSIAN SCALARS               from file   501 offset           0 to matrix element file.
 Write OVERLAP                        from file   514 offset           0 to matrix element file.
 Write CORE HAMILTONIAN ALPHA         from file   515 offset           0 to matrix element file.
 Write CORE HAMILTONIAN BETA          from file   515 offset       52003 to matrix element file.
 Write KINETIC ENERGY                 from file   516 offset           0 to matrix element file.
 Write ORTHOGONAL BASIS               from file   685 offset           0 to matrix element file.
 Write DIPOLE INTEGRALS               from file   518 offset           0 to matrix element file.
 Array DIP VEL INTEGRALS               on  file    572 does not exist.
 Array R X DEL INTEGRALS               on  file    572 does not exist.
 Write ALPHA ORBITAL ENERGIES         from file     0 offset           0 to matrix element file.
 Write ALPHA MO COEFFICIENTS          from file 10524 offset           0 to matrix element file.
 Write ALPHA DENSITY MATRIX           from file     0 offset           0 to matrix element file.
 Write ALPHA SCF DENSITY MATRIX       from file 10528 offset           0 to matrix element file.
 Write ALPHA FOCK MATRIX              from file 10536 offset           0 to matrix element file.
 No 2e integrals to process.
 Perform NBO analysis...executing G09NBO...

 *********************************** NBO 7.0 ***********************************
             N A T U R A L   A T O M I C   O R B I T A L   A N D
          N A T U R A L   B O N D   O R B I T A L   A N A L Y S I S
 ************************ development version (D000000) ************************
  (c) Copyright 1996-2020 Board of Regents of the University of Wisconsin System
      on behalf of the Theoretical Chemistry Institute.  All rights reserved.

          Cite this program [NBO 7.0.9 (21-May-2020)] as:

          NBO 7.0.  E. D. Glendening, J. K. Badenhoop, A. E. Reed,
          J. E. Carpenter, J. A. Bohmann, C. M. Morales, P. Karafiloglou,
          C. R. Landis, and F. Weinhold, Theoretical Chemistry Institute,
          University of Wisconsin, Madison, WI (2018)

 Filename set to /scr/ericg/h2o/Gau-23606

 Job title: Water...rhf/cc-pV6Z//idealized


 NATURAL POPULATIONS:  Natural atomic orbital occupancies

  NAO Atom No lang   Type(AO)    Occupancy      Energy
 -------------------------------------------------------
   1    O  1  s      Cor( 1s)     2.00000     -20.56178
   2    O  1  s      Val( 2s)     1.74210      -1.03294
   3    O  1  s      Ryd( 4s)     0.00014      12.64763
   4    O  1  s      Ryd( 3s)     0.00000      12.53165
   5    O  1  s      Ryd( 6s)     0.00000      20.96583
   6    O  1  s      Ryd( 7s)     0.00000      42.62059
   7    O  1  s      Ryd( 5s)     0.00000      13.69594
   8    O  1  px     Val( 2p)     1.99229      -0.50140
   9    O  1  px     Ryd( 3p)     0.00053       0.90905
  10    O  1  px     Ryd( 4p)     0.00000       2.73709
  11    O  1  px     Ryd( 5p)     0.00000      11.57620
  12    O  1  px     Ryd( 6p)     0.00000      15.05048
  13    O  1  px     Ryd( 7p)     0.00000      13.50515
  14    O  1  py     Val( 2p)     1.44516      -0.33167
  15    O  1  py     Ryd( 3p)     0.00137       1.11405
  16    O  1  py     Ryd( 4p)     0.00000       6.65658
  17    O  1  py     Ryd( 5p)     0.00000      13.84297
  18    O  1  py     Ryd( 6p)     0.00000      16.10689
  19    O  1  py     Ryd( 7p)     0.00000      13.73925
  20    O  1  pz     Val( 2p)     1.73508      -0.42591
  21    O  1  pz     Ryd( 3p)     0.00010       1.05870
  22    O  1  pz     Ryd( 4p)     0.00020       3.08213
  23    O  1  pz     Ryd( 5p)     0.00000      13.97259
  24    O  1  pz     Ryd( 6p)     0.00000      19.05991
  25    O  1  pz     Ryd( 7p)     0.00000      24.08596
  26    O  1  dxy    Ryd( 3d)     0.00000       1.60861
  27    O  1  dxy    Ryd( 4d)     0.00000       4.79277
  28    O  1  dxy    Ryd( 5d)     0.00000       9.59804
  29    O  1  dxy    Ryd( 6d)     0.00000      17.80378
  30    O  1  dxy    Ryd( 7d)     0.00000      32.24184
  31    O  1  dxz    Ryd( 3d)     0.00435       1.49995
  32    O  1  dxz    Ryd( 4d)     0.00000       3.99799
  33    O  1  dxz    Ryd( 5d)     0.00000       9.16328
  34    O  1  dxz    Ryd( 6d)     0.00000      18.58184
  35    O  1  dxz    Ryd( 7d)     0.00000      31.20545
  36    O  1  dyz    Ryd( 3d)     0.00677       3.56772
  37    O  1  dyz    Ryd( 4d)     0.00000       6.45190
  38    O  1  dyz    Ryd( 5d)     0.00000      14.51127
  39    O  1  dyz    Ryd( 6d)     0.00000      20.90235
  40    O  1  dyz    Ryd( 7d)     0.00000      33.30996
  41    O  1  dx2y2  Ryd( 3d)     0.00168       2.48159
  42    O  1  dx2y2  Ryd( 4d)     0.00007       4.54657
  43    O  1  dx2y2  Ryd( 5d)     0.00000      11.42482
  44    O  1  dx2y2  Ryd( 6d)     0.00000      19.35400
  45    O  1  dx2y2  Ryd( 7d)     0.00000      34.21618
  46    O  1  dz2    Ryd( 3d)     0.00439       1.54771
  47    O  1  dz2    Ryd( 4d)     0.00000       5.03402
  48    O  1  dz2    Ryd( 5d)     0.00000      11.96647
  49    O  1  dz2    Ryd( 6d)     0.00000      18.58218
  50    O  1  dz2    Ryd( 7d)     0.00000      31.81936
  51    O  1  f(0)   Ryd( 4f)     0.00005       5.07053
  52    O  1  f(0)   Ryd( 5f)     0.00000       8.70014
  53    O  1  f(0)   Ryd( 6f)     0.00000      19.60226
  54    O  1  f(0)   Ryd( 7f)     0.00000      23.15925
  55    O  1  f(c1)  Ryd( 4f)     0.00005       3.89302
  56    O  1  f(c1)  Ryd( 5f)     0.00000       7.69120
  57    O  1  f(c1)  Ryd( 6f)     0.00000      17.49715
  58    O  1  f(c1)  Ryd( 7f)     0.00000      23.17285
  59    O  1  f(s1)  Ryd( 4f)     0.00000       7.43593
  60    O  1  f(s1)  Ryd( 5f)     0.00000      11.11078
  61    O  1  f(s1)  Ryd( 6f)     0.00000      21.74980
  62    O  1  f(s1)  Ryd( 7f)     0.00000      22.59181
  63    O  1  f(c2)  Ryd( 4f)     0.00049       6.40978
  64    O  1  f(c2)  Ryd( 5f)     0.00001       9.70769
  65    O  1  f(c2)  Ryd( 6f)     0.00000      21.96608
  66    O  1  f(c2)  Ryd( 7f)     0.00000      24.23441
  67    O  1  f(s2)  Ryd( 4f)     0.00000       5.41118
  68    O  1  f(s2)  Ryd( 5f)     0.00000       8.20445
  69    O  1  f(s2)  Ryd( 6f)     0.00000      21.65637
  70    O  1  f(s2)  Ryd( 7f)     0.00000      22.65170
  71    O  1  f(c3)  Ryd( 4f)     0.00064       4.83314
  72    O  1  f(c3)  Ryd( 5f)     0.00000       8.43947
  73    O  1  f(c3)  Ryd( 6f)     0.00000      20.76670
  74    O  1  f(c3)  Ryd( 7f)     0.00000      23.09740
  75    O  1  f(s3)  Ryd( 4f)     0.00031       5.35210
  76    O  1  f(s3)  Ryd( 5f)     0.00000       9.29205
  77    O  1  f(s3)  Ryd( 6f)     0.00000      22.77834
  78    O  1  f(s3)  Ryd( 7f)     0.00000      23.56945
  79    O  1  g(0)   Ryd( 5g)     0.00007       5.64734
  80    O  1  g(0)   Ryd( 6g)     0.00000      19.27546
  81    O  1  g(0)   Ryd( 7g)     0.00000      29.43032
  82    O  1  g(c1)  Ryd( 5g)     0.00000       5.19770
  83    O  1  g(c1)  Ryd( 6g)     0.00000      17.45332
  84    O  1  g(c1)  Ryd( 7g)     0.00000      29.22843
  85    O  1  g(s1)  Ryd( 5g)     0.00006       7.20720
  86    O  1  g(s1)  Ryd( 6g)     0.00000      24.34974
  87    O  1  g(s1)  Ryd( 7g)     0.00000      29.65161
  88    O  1  g(c2)  Ryd( 5g)     0.00019       6.22337
  89    O  1  g(c2)  Ryd( 6g)     0.00000      20.90732
  90    O  1  g(c2)  Ryd( 7g)     0.00000      29.70340
  91    O  1  g(s2)  Ryd( 5g)     0.00000       5.82962
  92    O  1  g(s2)  Ryd( 6g)     0.00000      22.06671
  93    O  1  g(s2)  Ryd( 7g)     0.00000      29.36252
  94    O  1  g(c3)  Ryd( 5g)     0.00011       6.51916
  95    O  1  g(c3)  Ryd( 6g)     0.00000      21.64919
  96    O  1  g(c3)  Ryd( 7g)     0.00000      29.63415
  97    O  1  g(s3)  Ryd( 5g)     0.00020       5.92056
  98    O  1  g(s3)  Ryd( 6g)     0.00000      20.29319
  99    O  1  g(s3)  Ryd( 7g)     0.00000      29.73589
 100    O  1  g(c4)  Ryd( 5g)     0.00001       5.74119
 101    O  1  g(c4)  Ryd( 6g)     0.00000      21.16371
 102    O  1  g(c4)  Ryd( 7g)     0.00000      29.46469
 103    O  1  g(s4)  Ryd( 5g)     0.00000       5.95344
 104    O  1  g(s4)  Ryd( 6g)     0.00000      20.96219
 105    O  1  g(s4)  Ryd( 7g)     0.00000      29.45142
 106    O  1  h(0)   Ryd( 6h)     0.00001      11.60373
 107    O  1  h(0)   Ryd( 7h)     0.00000      25.80587
 108    O  1  h(c1)  Ryd( 6h)     0.00000      10.98929
 109    O  1  h(c1)  Ryd( 7h)     0.00000      25.17510
 110    O  1  h(s1)  Ryd( 6h)     0.00004      12.60432
 111    O  1  h(s1)  Ryd( 7h)     0.00000      25.24054
 112    O  1  h(c2)  Ryd( 6h)     0.00002      11.62098
 113    O  1  h(c2)  Ryd( 7h)     0.00000      26.69220
 114    O  1  h(s2)  Ryd( 6h)     0.00000      12.16608
 115    O  1  h(s2)  Ryd( 7h)     0.00000      25.05592
 116    O  1  h(c3)  Ryd( 6h)     0.00002      11.91760
 117    O  1  h(c3)  Ryd( 7h)     0.00000      26.13468
 118    O  1  h(s3)  Ryd( 6h)     0.00004      11.75285
 119    O  1  h(s3)  Ryd( 7h)     0.00000      25.66187
 120    O  1  h(c4)  Ryd( 6h)     0.00003      11.61360
 121    O  1  h(c4)  Ryd( 7h)     0.00000      25.98779
 122    O  1  h(s4)  Ryd( 6h)     0.00000      11.75738
 123    O  1  h(s4)  Ryd( 7h)     0.00000      26.52813
 124    O  1  h(c5)  Ryd( 6h)     0.00001      11.75074
 125    O  1  h(c5)  Ryd( 7h)     0.00000      25.55201
 126    O  1  h(s5)  Ryd( 6h)     0.00001      11.80474
 127    O  1  h(s5)  Ryd( 7h)     0.00000      25.42037
 128    O  1  i(0)   Ryd( 7i)     0.00000      20.76252
 129    O  1  i(c1)  Ryd( 7i)     0.00000      20.53816
 130    O  1  i(s1)  Ryd( 7i)     0.00000      21.79469
 131    O  1  i(c2)  Ryd( 7i)     0.00000      20.88373
 132    O  1  i(s2)  Ryd( 7i)     0.00000      21.83563
 133    O  1  i(c3)  Ryd( 7i)     0.00000      21.17683
 134    O  1  i(s3)  Ryd( 7i)     0.00000      20.70892
 135    O  1  i(c4)  Ryd( 7i)     0.00000      21.61750
 136    O  1  i(s4)  Ryd( 7i)     0.00000      20.59690
 137    O  1  i(c5)  Ryd( 7i)     0.00000      20.55241
 138    O  1  i(s5)  Ryd( 7i)     0.00000      21.20454
 139    O  1  i(c6)  Ryd( 7i)     0.00000      21.23795
 140    O  1  i(s6)  Ryd( 7i)     0.00000      21.12881

 141    H  2  s      Val( 1s)     0.52753       0.29023
 142    H  2  s      Ryd( 2s)     0.00023       2.15030
 143    H  2  s      Ryd( 3s)     0.00016       2.21794
 144    H  2  s      Ryd( 5s)     0.00000       7.58721
 145    H  2  s      Ryd( 4s)     0.00000       4.67808
 146    H  2  s      Ryd( 6s)     0.00000      11.59784
 147    H  2  px     Ryd( 2p)     0.00009       2.35255
 148    H  2  px     Ryd( 3p)     0.00053       5.74918
 149    H  2  px     Ryd( 4p)     0.00000       6.51824
 150    H  2  px     Ryd( 5p)     0.00000      11.48930
 151    H  2  px     Ryd( 6p)     0.00000      28.04828
 152    H  2  py     Ryd( 2p)     0.00070       3.16854
 153    H  2  py     Ryd( 3p)     0.00010       6.95737
 154    H  2  py     Ryd( 4p)     0.00001       9.55464
 155    H  2  py     Ryd( 5p)     0.00000      13.13217
 156    H  2  py     Ryd( 6p)     0.00000      28.09538
 157    H  2  pz     Ryd( 2p)     0.00094       3.09149
 158    H  2  pz     Ryd( 3p)     0.00020       6.73757
 159    H  2  pz     Ryd( 4p)     0.00002       8.55717
 160    H  2  pz     Ryd( 5p)     0.00000      12.62538
 161    H  2  pz     Ryd( 6p)     0.00000      27.51232
 162    H  2  dxy    Ryd( 3d)     0.00011       5.32268
 163    H  2  dxy    Ryd( 4d)     0.00000       6.57698
 164    H  2  dxy    Ryd( 5d)     0.00000      12.32486
 165    H  2  dxy    Ryd( 6d)     0.00000      20.26629
 166    H  2  dxz    Ryd( 3d)     0.00019       4.45744
 167    H  2  dxz    Ryd( 4d)     0.00002       5.62764
 168    H  2  dxz    Ryd( 5d)     0.00000      10.98064
 169    H  2  dxz    Ryd( 6d)     0.00000      20.79765
 170    H  2  dyz    Ryd( 3d)     0.00003       5.33897
 171    H  2  dyz    Ryd( 4d)     0.00018       4.99888
 172    H  2  dyz    Ryd( 5d)     0.00000      17.87172
 173    H  2  dyz    Ryd( 6d)     0.00000      21.57292
 174    H  2  dx2y2  Ryd( 3d)     0.00004       5.01772
 175    H  2  dx2y2  Ryd( 4d)     0.00008       5.41102
 176    H  2  dx2y2  Ryd( 5d)     0.00000      12.63806
 177    H  2  dx2y2  Ryd( 6d)     0.00000      21.00250
 178    H  2  dz2    Ryd( 3d)     0.00021       5.57338
 179    H  2  dz2    Ryd( 4d)     0.00001       6.70238
 180    H  2  dz2    Ryd( 5d)     0.00000      13.94826
 181    H  2  dz2    Ryd( 6d)     0.00000      20.66193
 182    H  2  f(0)   Ryd( 4f)     0.00003       7.24732
 183    H  2  f(0)   Ryd( 5f)     0.00000       9.69091
 184    H  2  f(0)   Ryd( 6f)     0.00000      23.09031
 185    H  2  f(c1)  Ryd( 4f)     0.00000       7.00330
 186    H  2  f(c1)  Ryd( 5f)     0.00000       9.12583
 187    H  2  f(c1)  Ryd( 6f)     0.00000      22.72698
 188    H  2  f(s1)  Ryd( 4f)     0.00002       6.14420
 189    H  2  f(s1)  Ryd( 5f)     0.00001       9.56337
 190    H  2  f(s1)  Ryd( 6f)     0.00000      24.62694
 191    H  2  f(c2)  Ryd( 4f)     0.00009       5.96797
 192    H  2  f(c2)  Ryd( 5f)     0.00000       9.45568
 193    H  2  f(c2)  Ryd( 6f)     0.00000      23.49293
 194    H  2  f(s2)  Ryd( 4f)     0.00000       5.93327
 195    H  2  f(s2)  Ryd( 5f)     0.00001       9.20286
 196    H  2  f(s2)  Ryd( 6f)     0.00000      23.84868
 197    H  2  f(c3)  Ryd( 4f)     0.00000       6.61950
 198    H  2  f(c3)  Ryd( 5f)     0.00000       9.65229
 199    H  2  f(c3)  Ryd( 6f)     0.00000      23.45952
 200    H  2  f(s3)  Ryd( 4f)     0.00004       6.96524
 201    H  2  f(s3)  Ryd( 5f)     0.00000       9.86647
 202    H  2  f(s3)  Ryd( 6f)     0.00000      23.14282
 203    H  2  g(0)   Ryd( 5g)     0.00000       8.40231
 204    H  2  g(0)   Ryd( 6g)     0.00000      20.41229
 205    H  2  g(c1)  Ryd( 5g)     0.00000       8.08673
 206    H  2  g(c1)  Ryd( 6g)     0.00000      20.34807
 207    H  2  g(s1)  Ryd( 5g)     0.00001       8.00051
 208    H  2  g(s1)  Ryd( 6g)     0.00000      20.39818
 209    H  2  g(c2)  Ryd( 5g)     0.00001       7.97152
 210    H  2  g(c2)  Ryd( 6g)     0.00000      20.06668
 211    H  2  g(s2)  Ryd( 5g)     0.00000       8.14136
 212    H  2  g(s2)  Ryd( 6g)     0.00000      20.27902
 213    H  2  g(c3)  Ryd( 5g)     0.00002       7.42141
 214    H  2  g(c3)  Ryd( 6g)     0.00000      19.97067
 215    H  2  g(s3)  Ryd( 5g)     0.00001       8.32189
 216    H  2  g(s3)  Ryd( 6g)     0.00000      20.06778
 217    H  2  g(c4)  Ryd( 5g)     0.00000       8.37653
 218    H  2  g(c4)  Ryd( 6g)     0.00000      20.26267
 219    H  2  g(s4)  Ryd( 5g)     0.00001       8.06020
 220    H  2  g(s4)  Ryd( 6g)     0.00000      20.30424
 221    H  2  h(0)   Ryd( 6h)     0.00000      18.15128
 222    H  2  h(c1)  Ryd( 6h)     0.00000      17.95313
 223    H  2  h(s1)  Ryd( 6h)     0.00000      17.53938
 224    H  2  h(c2)  Ryd( 6h)     0.00000      17.52394
 225    H  2  h(s2)  Ryd( 6h)     0.00000      17.57930
 226    H  2  h(c3)  Ryd( 6h)     0.00000      17.18715
 227    H  2  h(s3)  Ryd( 6h)     0.00000      18.10088
 228    H  2  h(c4)  Ryd( 6h)     0.00000      17.54022
 229    H  2  h(s4)  Ryd( 6h)     0.00000      17.29340
 230    H  2  h(c5)  Ryd( 6h)     0.00000      17.78770
 231    H  2  h(s5)  Ryd( 6h)     0.00000      17.83836

 232    H  3  s      Val( 1s)     0.52753       0.29023
 233    H  3  s      Ryd( 2s)     0.00023       2.15030
 234    H  3  s      Ryd( 3s)     0.00016       2.21794
 235    H  3  s      Ryd( 5s)     0.00000       7.58709
 236    H  3  s      Ryd( 4s)     0.00000       5.67306
 237    H  3  s      Ryd( 6s)     0.00000      10.60299
 238    H  3  px     Ryd( 2p)     0.00009       2.35255
 239    H  3  px     Ryd( 3p)     0.00053       5.74918
 240    H  3  px     Ryd( 4p)     0.00000       6.51824
 241    H  3  px     Ryd( 5p)     0.00000      11.48930
 242    H  3  px     Ryd( 6p)     0.00000      28.04828
 243    H  3  py     Ryd( 2p)     0.00070       3.16854
 244    H  3  py     Ryd( 3p)     0.00010       6.95737
 245    H  3  py     Ryd( 4p)     0.00001       9.55464
 246    H  3  py     Ryd( 5p)     0.00000      13.13217
 247    H  3  py     Ryd( 6p)     0.00000      28.09538
 248    H  3  pz     Ryd( 2p)     0.00094       3.09149
 249    H  3  pz     Ryd( 3p)     0.00020       6.73757
 250    H  3  pz     Ryd( 4p)     0.00002       8.55717
 251    H  3  pz     Ryd( 5p)     0.00000      12.62538
 252    H  3  pz     Ryd( 6p)     0.00000      27.51232
 253    H  3  dxy    Ryd( 3d)     0.00011       5.32268
 254    H  3  dxy    Ryd( 4d)     0.00000       6.57698
 255    H  3  dxy    Ryd( 5d)     0.00000      12.32486
 256    H  3  dxy    Ryd( 6d)     0.00000      20.26629
 257    H  3  dxz    Ryd( 3d)     0.00019       4.45744
 258    H  3  dxz    Ryd( 4d)     0.00002       5.62764
 259    H  3  dxz    Ryd( 5d)     0.00000      10.98064
 260    H  3  dxz    Ryd( 6d)     0.00000      20.79765
 261    H  3  dyz    Ryd( 3d)     0.00003       5.33897
 262    H  3  dyz    Ryd( 4d)     0.00018       4.99888
 263    H  3  dyz    Ryd( 5d)     0.00000      17.87172
 264    H  3  dyz    Ryd( 6d)     0.00000      21.57292
 265    H  3  dx2y2  Ryd( 3d)     0.00004       5.01772
 266    H  3  dx2y2  Ryd( 4d)     0.00008       5.41102
 267    H  3  dx2y2  Ryd( 5d)     0.00000      12.63806
 268    H  3  dx2y2  Ryd( 6d)     0.00000      21.00250
 269    H  3  dz2    Ryd( 3d)     0.00021       5.57338
 270    H  3  dz2    Ryd( 4d)     0.00001       6.70238
 271    H  3  dz2    Ryd( 5d)     0.00000      13.94826
 272    H  3  dz2    Ryd( 6d)     0.00000      20.66193
 273    H  3  f(0)   Ryd( 4f)     0.00003       7.24732
 274    H  3  f(0)   Ryd( 5f)     0.00000       9.69091
 275    H  3  f(0)   Ryd( 6f)     0.00000      23.09031
 276    H  3  f(c1)  Ryd( 4f)     0.00000       7.00330
 277    H  3  f(c1)  Ryd( 5f)     0.00000       9.12583
 278    H  3  f(c1)  Ryd( 6f)     0.00000      22.72698
 279    H  3  f(s1)  Ryd( 4f)     0.00002       6.14420
 280    H  3  f(s1)  Ryd( 5f)     0.00001       9.56337
 281    H  3  f(s1)  Ryd( 6f)     0.00000      24.62694
 282    H  3  f(c2)  Ryd( 4f)     0.00009       5.96797
 283    H  3  f(c2)  Ryd( 5f)     0.00000       9.45568
 284    H  3  f(c2)  Ryd( 6f)     0.00000      23.49293
 285    H  3  f(s2)  Ryd( 4f)     0.00000       5.93327
 286    H  3  f(s2)  Ryd( 5f)     0.00001       9.20286
 287    H  3  f(s2)  Ryd( 6f)     0.00000      23.84868
 288    H  3  f(c3)  Ryd( 4f)     0.00000       6.61950
 289    H  3  f(c3)  Ryd( 5f)     0.00000       9.65229
 290    H  3  f(c3)  Ryd( 6f)     0.00000      23.45952
 291    H  3  f(s3)  Ryd( 4f)     0.00004       6.96524
 292    H  3  f(s3)  Ryd( 5f)     0.00000       9.86647
 293    H  3  f(s3)  Ryd( 6f)     0.00000      23.14282
 294    H  3  g(0)   Ryd( 5g)     0.00000       8.40231
 295    H  3  g(0)   Ryd( 6g)     0.00000      20.41229
 296    H  3  g(c1)  Ryd( 5g)     0.00000       8.08673
 297    H  3  g(c1)  Ryd( 6g)     0.00000      20.34807
 298    H  3  g(s1)  Ryd( 5g)     0.00001       8.00051
 299    H  3  g(s1)  Ryd( 6g)     0.00000      20.39818
 300    H  3  g(c2)  Ryd( 5g)     0.00001       7.97152
 301    H  3  g(c2)  Ryd( 6g)     0.00000      20.06668
 302    H  3  g(s2)  Ryd( 5g)     0.00000       8.14136
 303    H  3  g(s2)  Ryd( 6g)     0.00000      20.27902
 304    H  3  g(c3)  Ryd( 5g)     0.00002       7.42141
 305    H  3  g(c3)  Ryd( 6g)     0.00000      19.97067
 306    H  3  g(s3)  Ryd( 5g)     0.00001       8.32189
 307    H  3  g(s3)  Ryd( 6g)     0.00000      20.06778
 308    H  3  g(c4)  Ryd( 5g)     0.00000       8.37653
 309    H  3  g(c4)  Ryd( 6g)     0.00000      20.26267
 310    H  3  g(s4)  Ryd( 5g)     0.00001       8.06020
 311    H  3  g(s4)  Ryd( 6g)     0.00000      20.30424
 312    H  3  h(0)   Ryd( 6h)     0.00000      18.15128
 313    H  3  h(c1)  Ryd( 6h)     0.00000      17.95313
 314    H  3  h(s1)  Ryd( 6h)     0.00000      17.53938
 315    H  3  h(c2)  Ryd( 6h)     0.00000      17.52394
 316    H  3  h(s2)  Ryd( 6h)     0.00000      17.57930
 317    H  3  h(c3)  Ryd( 6h)     0.00000      17.18715
 318    H  3  h(s3)  Ryd( 6h)     0.00000      18.10088
 319    H  3  h(c4)  Ryd( 6h)     0.00000      17.54022
 320    H  3  h(s4)  Ryd( 6h)     0.00000      17.29340
 321    H  3  h(c5)  Ryd( 6h)     0.00000      17.78770
 322    H  3  h(s5)  Ryd( 6h)     0.00000      17.83836


 Summary of Natural Population Analysis:

                                     Natural Population
             Natural    ---------------------------------------------
  Atom No    Charge        Core      Valence    Rydberg      Total
 --------------------------------------------------------------------
    O  1   -0.93664      2.00000     6.91464    0.02199     8.93664
    H  2    0.46832      0.00000     0.52753    0.00415     0.53168
    H  3    0.46832      0.00000     0.52753    0.00415     0.53168
 ====================================================================
 * Total *  0.00000      2.00000     7.96970    0.03030    10.00000

                                 Natural Population
 ---------------------------------------------------------
   Core                       2.00000 ( 99.9999% of    2)
   Valence                    7.96970 ( 99.6213% of    8)
   Natural Minimal Basis      9.96970 ( 99.6970% of   10)
   Natural Rydberg Basis      0.03030 (  0.3030% of   10)
 ---------------------------------------------------------

    Atom No         Natural Electron Configuration
 ----------------------------------------------------------------------------
      O  1      [core]2s( 1.74)2p( 5.17)3d( 0.02)
      H  2            1s( 0.53)
      H  3            1s( 0.53)


 NATURAL BOND ORBITAL ANALYSIS:

                            Occupancies       Lewis Structure    Low   High
         Max    Occ     -------------------  -----------------   occ   occ
  Cycle  Ctr   Thresh    Lewis   non-Lewis     CR  BD  nC  LP    (L)   (NL)
 ============================================================================
    1     2     1.90     9.99549   0.00451      1   2   0   2     0      0
 ----------------------------------------------------------------------------

 Structure accepted: No low occupancy Lewis orbitals

 -------------------------------------------------------
   Core                      2.00000 (100.000% of   2)
   Valence Lewis             7.99549 ( 99.944% of   8)
  ==================      =============================
   Total Lewis               9.99549 ( 99.955% of  10)
  -----------------------------------------------------
   Valence non-Lewis         0.00033 (  0.003% of  10)
   Rydberg non-Lewis         0.00418 (  0.042% of  10)
  ==================      =============================
   Total non-Lewis           0.00451 (  0.045% of  10)
 -------------------------------------------------------


     (Occupancy)   Bond orbital / Coefficients / Hybrids
 ------------------ Lewis ------------------------------------------------------
   1. (2.00000) CR ( 1) O  1            s(100.00%)
                                         1.0000  0.0000  0.0000  0.0000  0.0000
                                         0.0000  0.0000  0.0000  0.0000  0.0000
                                         0.0000  0.0000  0.0000  0.0000  0.0000
                                         0.0000  0.0000  0.0000  0.0000  0.0000
                                         0.0000  0.0000  0.0000  0.0000  0.0000
                                         0.0000  0.0000  0.0000  0.0000  0.0000
                                         0.0000  0.0000  0.0000  0.0000  0.0000
                                         0.0000  0.0000  0.0000  0.0000  0.0000
                                         0.0000  0.0000  0.0000  0.0000  0.0000
                                         0.0000  0.0000  0.0000  0.0000  0.0000
                                         0.0000  0.0000  0.0000  0.0000  0.0000
                                         0.0000  0.0000  0.0000  0.0000  0.0000
                                         0.0000  0.0000  0.0000  0.0000  0.0000
                                         0.0000  0.0000  0.0000  0.0000  0.0000
                                         0.0000  0.0000  0.0000  0.0000  0.0000
                                         0.0000  0.0000  0.0000  0.0000  0.0000
                                         0.0000  0.0000  0.0000  0.0000  0.0000
                                         0.0000  0.0000  0.0000  0.0000  0.0000
                                         0.0000  0.0000  0.0000  0.0000  0.0000
                                         0.0000  0.0000  0.0000  0.0000  0.0000
                                         0.0000  0.0000  0.0000  0.0000  0.0000
                                         0.0000  0.0000  0.0000  0.0000  0.0000
                                         0.0000  0.0000  0.0000  0.0000  0.0000
                                         0.0000  0.0000  0.0000  0.0000  0.0000
                                         0.0000  0.0000  0.0000  0.0000  0.0000
                                         0.0000  0.0000  0.0000  0.0000  0.0000
                                         0.0000  0.0000  0.0000  0.0000  0.0000
                                         0.0000  0.0000  0.0000  0.0000  0.0000
   2. (1.99875) LP ( 1) O  1            s( 50.28%)p 0.99( 49.57%)d 0.00(  0.14%)
                                                  f 0.00(  0.00%)g 0.00(  0.00%)
                                                  h 0.00(  0.00%)i 0.00(  0.00%)
                                         0.0000  0.7091  0.0055  0.0000  0.0000
                                         0.0000  0.0000  0.0000  0.0000  0.0000
                                         0.0000  0.0000  0.0000  0.0000  0.0000
                                         0.0000  0.0000  0.0000  0.0000  0.7040
                                        -0.0067 -0.0067 -0.0005 -0.0001  0.0000
                                         0.0000  0.0000  0.0000  0.0000  0.0000
                                         0.0000  0.0000  0.0000  0.0000  0.0000
                                         0.0000  0.0000  0.0000  0.0000  0.0000
                                        -0.0060 -0.0045 -0.0001 -0.0003  0.0000
                                        -0.0371  0.0006  0.0000  0.0000  0.0000
                                         0.0042  0.0003  0.0001  0.0000  0.0000
                                         0.0000  0.0000  0.0000  0.0000  0.0000
                                         0.0000  0.0000 -0.0033  0.0018  0.0001
                                         0.0000  0.0000  0.0000  0.0000  0.0000
                                         0.0000  0.0000  0.0000  0.0000  0.0000
                                         0.0000  0.0000  0.0000  0.0025  0.0000
                                         0.0000  0.0000  0.0000  0.0000  0.0000
                                         0.0000  0.0000  0.0050 -0.0001  0.0001
                                         0.0000  0.0000  0.0000  0.0000  0.0000
                                         0.0000  0.0000  0.0000  0.0000  0.0007
                                         0.0000  0.0000  0.0000  0.0000  0.0000
                                        -0.0016  0.0000  0.0000  0.0000  0.0000
                                         0.0000 -0.0022  0.0000  0.0000  0.0000
                                         0.0000  0.0000  0.0000  0.0000 -0.0001
                                         0.0001  0.0000  0.0000  0.0000  0.0000
                                         0.0000  0.0000  0.0003  0.0000  0.0000
                                         0.0004  0.0000  0.0000  0.0000  0.0001
                                         0.0000  0.0000  0.0000 -0.0002  0.0000
   3. (1.99800) LP ( 2) O  1            s(  0.00%)p 1.00( 99.74%)d 0.00(  0.22%)
                                                  f 0.00(  0.03%)g 0.00(  0.01%)
                                                  h 0.00(  0.00%)i 0.00(  0.00%)
                                         0.0000  0.0000  0.0000  0.0000  0.0000
                                         0.0000  0.0000  0.9986 -0.0162  0.0009
                                         0.0005  0.0001  0.0000  0.0000  0.0000
                                         0.0000  0.0000  0.0000  0.0000  0.0000
                                         0.0000  0.0000  0.0000  0.0000  0.0000
                                         0.0000  0.0000  0.0000  0.0000  0.0000
                                        -0.0467  0.0009  0.0000 -0.0001  0.0000
                                         0.0000  0.0000  0.0000  0.0000  0.0000
                                         0.0000  0.0000  0.0000  0.0000  0.0000
                                         0.0000  0.0000  0.0000  0.0000  0.0000
                                         0.0000  0.0000  0.0000  0.0000  0.0051
                                        -0.0007  0.0001  0.0000  0.0000  0.0000
                                         0.0000  0.0000  0.0000  0.0000  0.0000
                                         0.0000  0.0000  0.0000  0.0000  0.0000
                                        -0.0178  0.0010  0.0001  0.0001  0.0000
                                         0.0000  0.0000  0.0000  0.0000  0.0000
                                         0.0000  0.0008 -0.0001  0.0000  0.0000
                                         0.0000  0.0000  0.0000  0.0000  0.0000
                                         0.0000  0.0000  0.0000  0.0076 -0.0002
                                         0.0000  0.0000  0.0000  0.0000  0.0000
                                         0.0000  0.0000  0.0000  0.0000  0.0000
                                         0.0000  0.0000 -0.0009  0.0000  0.0000
                                         0.0000  0.0000  0.0000  0.0000  0.0000
                                        -0.0028  0.0000  0.0000  0.0000  0.0000
                                         0.0000  0.0000  0.0000  0.0019 -0.0001
                                         0.0000  0.0000  0.0000  0.0001  0.0000
                                         0.0000  0.0000  0.0002  0.0000  0.0000
                                         0.0000 -0.0009  0.0000  0.0000  0.0000
   4. (1.99937) BD ( 1) O  1- H  2
               ( 73.52%)   0.8574* O  1 s( 24.81%)p 3.01( 74.80%)d 0.01(  0.34%)
                                                  f 0.00(  0.03%)g 0.00(  0.02%)
                                                  h 0.00(  0.00%)i 0.00(  0.00%)
                                         0.0000  0.4981 -0.0053  0.0000  0.0000
                                         0.0000  0.0000  0.0000  0.0000  0.0000
                                         0.0000  0.0000  0.0000  0.7050  0.0217
                                        -0.0005 -0.0001  0.0000  0.0000 -0.5005
                                         0.0017 -0.0059  0.0004  0.0001  0.0000
                                         0.0000  0.0000  0.0000  0.0000  0.0000
                                         0.0000  0.0000  0.0000  0.0000  0.0000
                                        -0.0483  0.0004 -0.0005  0.0001  0.0000
                                        -0.0232 -0.0030  0.0003  0.0002  0.0000
                                         0.0235 -0.0011 -0.0006  0.0001  0.0000
                                         0.0025  0.0010 -0.0001  0.0000  0.0000
                                         0.0000  0.0000  0.0000  0.0002 -0.0003
                                         0.0003  0.0000  0.0126  0.0015  0.0000
                                         0.0000  0.0000  0.0000  0.0000  0.0000
                                         0.0000  0.0000  0.0000  0.0000 -0.0103
                                         0.0003  0.0000 -0.0001 -0.0044  0.0000
                                         0.0001  0.0000  0.0000  0.0000  0.0047
                                         0.0001  0.0000 -0.0068  0.0000  0.0001
                                         0.0000  0.0000  0.0000  0.0000  0.0000
                                         0.0000  0.0083  0.0000  0.0001  0.0021
                                         0.0001  0.0000  0.0000  0.0000  0.0000
                                         0.0017  0.0000  0.0000  0.0000 -0.0039
                                        -0.0001  0.0015  0.0000  0.0000  0.0000
                                         0.0000  0.0000 -0.0035  0.0000 -0.0032
                                         0.0000  0.0000  0.0000  0.0000  0.0000
                                         0.0019 -0.0001  0.0001  0.0000  0.0002
                                         0.0004  0.0000  0.0000  0.0000  0.0010
                                         0.0000  0.0000 -0.0005 -0.0002  0.0000
               ( 26.48%)   0.5146* H  2 s( 99.61%)p 0.00(  0.29%)d 0.00(  0.06%)
                                                  f 0.00(  0.03%)g 0.00(  0.00%)
                                                  h 0.00(  0.00%)
                                         0.9981 -0.0006 -0.0002  0.0000  0.0000
                                         0.0000  0.0000  0.0000  0.0000  0.0000
                                         0.0000  0.0362 -0.0129 -0.0041 -0.0004
                                         0.0001 -0.0376  0.0030 -0.0016 -0.0002
                                         0.0001  0.0000  0.0000  0.0000  0.0000
                                         0.0000  0.0000  0.0000  0.0000 -0.0065
                                        -0.0185 -0.0006  0.0001 -0.0083 -0.0115
                                        -0.0007 -0.0002  0.0019 -0.0001 -0.0007
                                         0.0001 -0.0068 -0.0007  0.0001  0.0000
                                         0.0000  0.0000 -0.0047 -0.0010 -0.0001
                                        -0.0127 -0.0014  0.0000  0.0000  0.0000
                                         0.0000  0.0000  0.0000  0.0000  0.0088
                                        -0.0005  0.0000 -0.0023 -0.0004  0.0000
                                         0.0000  0.0029 -0.0003 -0.0024 -0.0007
                                         0.0000  0.0000  0.0000  0.0000  0.0046
                                         0.0005  0.0028  0.0001  0.0000  0.0000
                                        -0.0002  0.0000  0.0011  0.0001  0.0000
                                         0.0000  0.0011  0.0013  0.0000  0.0000
                                        -0.0007
   5. (1.99937) BD ( 1) O  1- H  3
               ( 73.52%)   0.8574* O  1 s( 24.81%)p 3.01( 74.80%)d 0.01(  0.34%)
                                                  f 0.00(  0.03%)g 0.00(  0.02%)
                                                  h 0.00(  0.00%)i 0.00(  0.00%)
                                         0.0000  0.4981 -0.0053  0.0000  0.0000
                                         0.0000  0.0000  0.0000  0.0000  0.0000
                                         0.0000  0.0000  0.0000 -0.7050 -0.0217
                                         0.0005  0.0001  0.0000  0.0000 -0.5005
                                         0.0017 -0.0059  0.0004  0.0001  0.0000
                                         0.0000  0.0000  0.0000  0.0000  0.0000
                                         0.0000  0.0000  0.0000  0.0000  0.0000
                                         0.0483 -0.0004  0.0005 -0.0001  0.0000
                                        -0.0232 -0.0030  0.0003  0.0002  0.0000
                                         0.0235 -0.0011 -0.0006  0.0001  0.0000
                                         0.0025  0.0010 -0.0001  0.0000  0.0000
                                         0.0000  0.0000  0.0000 -0.0002  0.0003
                                        -0.0003  0.0000  0.0126  0.0015  0.0000
                                         0.0000  0.0000  0.0000  0.0000  0.0000
                                         0.0000  0.0000  0.0000  0.0000  0.0103
                                        -0.0003  0.0000  0.0001 -0.0044  0.0000
                                         0.0001  0.0000  0.0000  0.0000 -0.0047
                                        -0.0001  0.0000 -0.0068  0.0000  0.0001
                                         0.0000  0.0000  0.0000  0.0000  0.0000
                                         0.0000 -0.0083  0.0000 -0.0001  0.0021
                                         0.0001  0.0000  0.0000  0.0000  0.0000
                                         0.0017  0.0000  0.0000  0.0000  0.0039
                                         0.0001  0.0015  0.0000  0.0000  0.0000
                                         0.0000  0.0000  0.0035  0.0000 -0.0032
                                         0.0000  0.0000  0.0000  0.0000  0.0000
                                        -0.0019  0.0001  0.0001  0.0000 -0.0002
                                         0.0004  0.0000  0.0000  0.0000  0.0010
                                         0.0000  0.0000  0.0005 -0.0002  0.0000
               ( 26.48%)   0.5146* H  3 s( 99.61%)p 0.00(  0.29%)d 0.00(  0.06%)
                                                  f 0.00(  0.03%)g 0.00(  0.00%)
                                                  h 0.00(  0.00%)
                                         0.9981 -0.0006 -0.0002  0.0000  0.0000
                                         0.0000  0.0000  0.0000  0.0000  0.0000
                                         0.0000 -0.0362  0.0129  0.0041  0.0004
                                        -0.0001 -0.0376  0.0030 -0.0016 -0.0002
                                         0.0001  0.0000  0.0000  0.0000  0.0000
                                         0.0000  0.0000  0.0000  0.0000  0.0065
                                         0.0185  0.0006 -0.0001 -0.0083 -0.0115
                                        -0.0007 -0.0002  0.0019 -0.0001 -0.0007
                                         0.0001 -0.0068 -0.0007  0.0001  0.0000
                                         0.0000  0.0000  0.0047  0.0010  0.0001
                                        -0.0127 -0.0014  0.0000  0.0000  0.0000
                                         0.0000  0.0000  0.0000  0.0000 -0.0088
                                         0.0005  0.0000 -0.0023 -0.0004  0.0000
                                         0.0000 -0.0029  0.0003 -0.0024 -0.0007
                                         0.0000  0.0000  0.0000  0.0000 -0.0046
                                        -0.0005  0.0028  0.0001  0.0000  0.0000
                                        -0.0002  0.0000 -0.0011  0.0001  0.0000
                                         0.0000 -0.0011  0.0013  0.0000  0.0000
                                         0.0007
 ---------------- non-Lewis ----------------------------------------------------
   6. (0.00016) BD*( 1) O  1- H  2
               ( 26.48%)   0.5146* O  1 s( 24.81%)p 3.01( 74.80%)d 0.01(  0.34%)
                                                  f 0.00(  0.03%)g 0.00(  0.02%)
                                                  h 0.00(  0.00%)i 0.00(  0.00%)
                                         0.0000 -0.4981  0.0053  0.0000  0.0000
                                         0.0000  0.0000  0.0000  0.0000  0.0000
                                         0.0000  0.0000  0.0000 -0.7050 -0.0217
                                         0.0005  0.0001  0.0000  0.0000  0.5005
                                        -0.0017  0.0059 -0.0004 -0.0001  0.0000
                                         0.0000  0.0000  0.0000  0.0000  0.0000
                                         0.0000  0.0000  0.0000  0.0000  0.0000
                                         0.0483 -0.0004  0.0005 -0.0001  0.0000
                                         0.0232  0.0030 -0.0003 -0.0002  0.0000
                                        -0.0235  0.0011  0.0006 -0.0001  0.0000
                                        -0.0025 -0.0010  0.0001  0.0000  0.0000
                                         0.0000  0.0000  0.0000 -0.0002  0.0003
                                        -0.0003  0.0000 -0.0126 -0.0015  0.0000
                                         0.0000  0.0000  0.0000  0.0000  0.0000
                                         0.0000  0.0000  0.0000  0.0000  0.0103
                                        -0.0003  0.0000  0.0001  0.0044  0.0000
                                        -0.0001  0.0000  0.0000  0.0000 -0.0047
                                        -0.0001  0.0000  0.0068  0.0000 -0.0001
                                         0.0000  0.0000  0.0000  0.0000  0.0000
                                         0.0000 -0.0083  0.0000 -0.0001 -0.0021
                                        -0.0001  0.0000  0.0000  0.0000  0.0000
                                        -0.0017  0.0000  0.0000  0.0000  0.0039
                                         0.0001 -0.0015  0.0000  0.0000  0.0000
                                         0.0000  0.0000  0.0035  0.0000  0.0032
                                         0.0000  0.0000  0.0000  0.0000  0.0000
                                        -0.0019  0.0001 -0.0001  0.0000 -0.0002
                                        -0.0004  0.0000  0.0000  0.0000 -0.0010
                                         0.0000  0.0000  0.0005  0.0002  0.0000
               ( 73.52%)  -0.8574* H  2 s( 99.61%)p 0.00(  0.29%)d 0.00(  0.06%)
                                                  f 0.00(  0.03%)g 0.00(  0.00%)
                                                  h 0.00(  0.00%)
                                        -0.9981  0.0006  0.0002  0.0000  0.0000
                                         0.0000  0.0000  0.0000  0.0000  0.0000
                                         0.0000 -0.0362  0.0129  0.0041  0.0004
                                        -0.0001  0.0376 -0.0030  0.0016  0.0002
                                        -0.0001  0.0000  0.0000  0.0000  0.0000
                                         0.0000  0.0000  0.0000  0.0000  0.0065
                                         0.0185  0.0006 -0.0001  0.0083  0.0115
                                         0.0007  0.0002 -0.0019  0.0001  0.0007
                                        -0.0001  0.0068  0.0007 -0.0001  0.0000
                                         0.0000  0.0000  0.0047  0.0010  0.0001
                                         0.0127  0.0014  0.0000  0.0000  0.0000
                                         0.0000  0.0000  0.0000  0.0000 -0.0088
                                         0.0005  0.0000  0.0023  0.0004  0.0000
                                         0.0000 -0.0029  0.0003  0.0024  0.0007
                                         0.0000  0.0000  0.0000  0.0000 -0.0046
                                        -0.0005 -0.0028 -0.0001  0.0000  0.0000
                                         0.0002  0.0000 -0.0011 -0.0001  0.0000
                                         0.0000 -0.0011 -0.0013  0.0000  0.0000
                                         0.0007
   7. (0.00016) BD*( 1) O  1- H  3
               ( 26.48%)   0.5146* O  1 s( 24.81%)p 3.01( 74.80%)d 0.01(  0.34%)
                                                  f 0.00(  0.03%)g 0.00(  0.02%)
                                                  h 0.00(  0.00%)i 0.00(  0.00%)
                                         0.0000 -0.4981  0.0053  0.0000  0.0000
                                         0.0000  0.0000  0.0000  0.0000  0.0000
                                         0.0000  0.0000  0.0000  0.7050  0.0217
                                        -0.0005 -0.0001  0.0000  0.0000  0.5005
                                        -0.0017  0.0059 -0.0004 -0.0001  0.0000
                                         0.0000  0.0000  0.0000  0.0000  0.0000
                                         0.0000  0.0000  0.0000  0.0000  0.0000
                                        -0.0483  0.0004 -0.0005  0.0001  0.0000
                                         0.0232  0.0030 -0.0003 -0.0002  0.0000
                                        -0.0235  0.0011  0.0006 -0.0001  0.0000
                                        -0.0025 -0.0010  0.0001  0.0000  0.0000
                                         0.0000  0.0000  0.0000  0.0002 -0.0003
                                         0.0003  0.0000 -0.0126 -0.0015  0.0000
                                         0.0000  0.0000  0.0000  0.0000  0.0000
                                         0.0000  0.0000  0.0000  0.0000 -0.0103
                                         0.0003  0.0000 -0.0001  0.0044  0.0000
                                        -0.0001  0.0000  0.0000  0.0000  0.0047
                                         0.0001  0.0000  0.0068  0.0000 -0.0001
                                         0.0000  0.0000  0.0000  0.0000  0.0000
                                         0.0000  0.0083  0.0000  0.0001 -0.0021
                                        -0.0001  0.0000  0.0000  0.0000  0.0000
                                        -0.0017  0.0000  0.0000  0.0000 -0.0039
                                        -0.0001 -0.0015  0.0000  0.0000  0.0000
                                         0.0000  0.0000 -0.0035  0.0000  0.0032
                                         0.0000  0.0000  0.0000  0.0000  0.0000
                                         0.0019 -0.0001 -0.0001  0.0000  0.0002
                                        -0.0004  0.0000  0.0000  0.0000 -0.0010
                                         0.0000  0.0000 -0.0005  0.0002  0.0000
               ( 73.52%)  -0.8574* H  3 s( 99.61%)p 0.00(  0.29%)d 0.00(  0.06%)
                                                  f 0.00(  0.03%)g 0.00(  0.00%)
                                                  h 0.00(  0.00%)
                                        -0.9981  0.0006  0.0002  0.0000  0.0000
                                         0.0000  0.0000  0.0000  0.0000  0.0000
                                         0.0000  0.0362 -0.0129 -0.0041 -0.0004
                                         0.0001  0.0376 -0.0030  0.0016  0.0002
                                        -0.0001  0.0000  0.0000  0.0000  0.0000
                                         0.0000  0.0000  0.0000  0.0000 -0.0065
                                        -0.0185 -0.0006  0.0001  0.0083  0.0115
                                         0.0007  0.0002 -0.0019  0.0001  0.0007
                                        -0.0001  0.0068  0.0007 -0.0001  0.0000
                                         0.0000  0.0000 -0.0047 -0.0010 -0.0001
                                         0.0127  0.0014  0.0000  0.0000  0.0000
                                         0.0000  0.0000  0.0000  0.0000  0.0088
                                        -0.0005  0.0000  0.0023  0.0004  0.0000
                                         0.0000  0.0029 -0.0003  0.0024  0.0007
                                         0.0000  0.0000  0.0000  0.0000  0.0046
                                         0.0005 -0.0028 -0.0001  0.0000  0.0000
                                         0.0002  0.0000  0.0011 -0.0001  0.0000
                                         0.0000  0.0011 -0.0013  0.0000  0.0000
                                        -0.0007
   8. (0.00000) RY ( 1) O  1            s(  3.02%)p28.80( 86.92%)d 0.97(  2.93%)
                                                  f 1.98(  5.97%)g 0.29(  0.86%)
                                                  h 0.09(  0.26%)i 0.01(  0.04%)
   9. (0.00000) RY ( 2) O  1            s( 85.29%)p 0.01(  1.03%)d 0.09(  8.05%)
                                                  f 0.06(  4.87%)g 0.01(  0.70%)
                                                  h 0.00(  0.05%)i 0.00(  0.02%)
  10. (0.00000) RY ( 3) O  1            s( 50.80%)p 0.13(  6.46%)d 0.27( 13.79%)
                                                  f 0.56( 28.36%)g 0.01(  0.49%)
                                                  h 0.00(  0.08%)i 0.00(  0.02%)
  11. (0.00000) RY ( 4) O  1            s(  2.16%)p20.81( 44.92%)d17.16( 37.04%)
                                                  f 4.91( 10.60%)g 2.40(  5.17%)
                                                  h 0.03(  0.07%)i 0.02(  0.04%)
  12. (0.00000) RY ( 5) O  1            s( 38.89%)p 0.33( 12.94%)d 0.76( 29.49%)
                                                  f 0.32( 12.59%)g 0.15(  5.90%)
                                                  h 0.00(  0.12%)i 0.00(  0.06%)
  13. (0.00000) RY ( 6) O  1            s( 29.06%)p 0.37( 10.86%)d 1.35( 39.18%)
                                                  f 0.60( 17.55%)g 0.10(  2.99%)
                                                  h 0.01(  0.24%)i 0.00(  0.12%)
  14. (0.00000) RY ( 7) O  1            s( 33.01%)p 0.49( 16.18%)d 0.63( 20.75%)
                                                  f 0.61( 20.15%)g 0.26(  8.70%)
                                                  h 0.01(  0.38%)i 0.03(  0.84%)
  15. (0.00000) RY ( 8) O  1            s( 14.03%)p 1.56( 21.94%)d 3.49( 48.97%)
                                                  f 0.88( 12.38%)g 0.16(  2.28%)
                                                  h 0.02(  0.32%)i 0.01(  0.10%)
  16. (0.00000) RY ( 9) O  1            s( 40.75%)p 0.66( 27.08%)d 0.40( 16.50%)
                                                  f 0.14(  5.88%)g 0.22(  8.84%)
                                                  h 0.01(  0.46%)i 0.01(  0.49%)
  17. (0.00000) RY (10) O  1            s( 16.34%)p 3.96( 64.77%)d 0.75( 12.21%)
                                                  f 0.19(  3.17%)g 0.20(  3.26%)
                                                  h 0.01(  0.16%)i 0.01(  0.09%)
  18. (0.00000) RY (11) O  1            s(  8.06%)p 2.23( 18.01%)d 4.09( 33.00%)
                                                  f 4.47( 36.03%)g 0.57(  4.60%)
                                                  h 0.01(  0.05%)i 0.03(  0.23%)
  19. (0.00000) RY (12) O  1            s( 28.80%)p 0.59( 16.94%)d 0.82( 23.57%)
                                                  f 0.84( 24.20%)g 0.20(  5.70%)
                                                  h 0.02(  0.47%)i 0.01(  0.33%)
  20. (0.00000) RY (13) O  1            s( 34.43%)p 0.65( 22.27%)d 0.82( 28.08%)
                                                  f 0.26(  9.04%)g 0.15(  5.31%)
                                                  h 0.01(  0.31%)i 0.02(  0.56%)
  21. (0.00000) RY (14) O  1            s( 10.40%)p 1.64( 17.03%)d 2.59( 26.94%)
                                                  f 3.53( 36.68%)g 0.83(  8.68%)
                                                  h 0.02(  0.17%)i 0.01(  0.09%)
  22. (0.00000) RY (15) O  1            s(  3.12%)p 0.59(  1.84%)d 1.95(  6.07%)
                                                  f17.22( 53.64%)g10.93( 34.05%)
                                                  h 0.24(  0.75%)i 0.17(  0.54%)
  23. (0.00000) RY (16) O  1            s(  0.00%)p 1.00( 45.19%)d 0.82( 37.03%)
                                                  f 0.30( 13.48%)g 0.09(  4.25%)
                                                  h 0.00(  0.04%)i 0.00(  0.01%)
  24. (0.00000) RY (17) O  1            s(  3.41%)p11.47( 39.10%)d 8.89( 30.29%)
                                                  f 4.97( 16.92%)g 2.61(  8.88%)
                                                  h 0.18(  0.62%)i 0.23(  0.78%)
  25. (0.00000) RY (18) O  1            s( 11.82%)p 2.14( 25.26%)d 2.71( 31.99%)
                                                  f 1.35( 15.99%)g 1.14( 13.52%)
                                                  h 0.08(  0.94%)i 0.04(  0.47%)
  26. (0.00000) RY (19) O  1            s( 17.23%)p 0.75( 12.89%)d 1.16( 20.04%)
                                                  f 2.28( 39.34%)g 0.51(  8.81%)
                                                  h 0.08(  1.32%)i 0.02(  0.37%)
  27. (0.00000) RY (20) O  1            s(  6.42%)p 2.10( 13.49%)d 5.19( 33.29%)
                                                  f 4.90( 31.41%)g 2.03( 13.04%)
                                                  h 0.23(  1.47%)i 0.14(  0.88%)
  28. (0.00000) RY (21) O  1            s( 17.37%)p 2.09( 36.25%)d 0.97( 16.90%)
                                                  f 1.33( 23.04%)g 0.20(  3.52%)
                                                  h 0.04(  0.65%)i 0.13(  2.28%)
  29. (0.00000) RY (22) O  1            s(  0.00%)p 1.00( 60.71%)d 0.09(  5.63%)
                                                  f 0.33( 20.25%)g 0.22( 13.15%)
                                                  h 0.00(  0.25%)i 0.00(  0.01%)
  30. (0.00000) RY (23) O  1            s(  4.44%)p 5.53( 24.54%)d 6.60( 29.29%)
                                                  f 6.35( 28.19%)g 2.45( 10.86%)
                                                  h 0.37(  1.66%)i 0.23(  1.03%)
  31. (0.00000) RY (24) O  1            s(  5.31%)p 5.27( 27.99%)d 5.89( 31.31%)
                                                  f 4.58( 24.33%)g 1.20(  6.36%)
                                                  h 0.13(  0.72%)i 0.75(  3.99%)
  32. (0.00000) RY (25) O  1            s(  0.70%)p 5.55(  3.87%)d99.96( 69.76%)
                                                  f32.71( 22.82%)g 2.42(  1.69%)
                                                  h 1.62(  1.13%)i 0.05(  0.03%)
  33. (0.00000) RY (26) O  1            s(  1.82%)p 7.96( 14.53%)d12.38( 22.58%)
                                                  f17.59( 32.10%)g14.64( 26.71%)
                                                  h 0.61(  1.11%)i 0.63(  1.15%)
  34. (0.00000) RY (27) O  1            s(  9.43%)p 2.03( 19.11%)d 3.92( 36.92%)
                                                  f 2.21( 20.85%)g 1.23( 11.62%)
                                                  h 0.10(  0.91%)i 0.12(  1.15%)
  35. (0.00000) RY (28) O  1            s(  2.74%)p12.26( 33.63%)d13.62( 37.38%)
                                                  f 6.66( 18.28%)g 2.35(  6.44%)
                                                  h 0.40(  1.11%)i 0.15(  0.42%)
  36. (0.00000) RY (29) O  1            s(  0.00%)p 1.00( 22.28%)d 1.02( 22.75%)
                                                  f 2.02( 45.03%)g 0.44(  9.87%)
                                                  h 0.00(  0.04%)i 0.00(  0.03%)
  37. (0.00000) RY (30) O  1            s(  0.46%)p28.14( 12.92%)d31.42( 14.43%)
                                                  f49.32( 22.64%)g97.92( 44.96%)
                                                  h 6.27(  2.88%)i 3.70(  1.70%)
  38. (0.00000) RY (31) O  1            s(  1.19%)p10.37( 12.38%)d45.78( 54.67%)
                                                  f15.46( 18.46%)g 4.40(  5.26%)
                                                  h 4.56(  5.45%)i 2.17(  2.59%)
  39. (0.00000) RY (32) O  1            s(  0.54%)p39.65( 21.26%)d62.52( 33.53%)
                                                  f48.50( 26.01%)g27.57( 14.78%)
                                                  h 5.73(  3.07%)i 1.51(  0.81%)
  40. (0.00000) RY (33) O  1            s(  1.06%)p 3.35(  3.57%)d33.20( 35.31%)
                                                  f20.46( 21.76%)g31.99( 34.02%)
                                                  h 2.35(  2.49%)i 1.69(  1.79%)
  41. (0.00000) RY (34) O  1            s(  0.82%)p31.93( 26.13%)d45.25( 37.03%)
                                                  f19.78( 16.19%)g11.45(  9.37%)
                                                  h 5.90(  4.82%)i 6.90(  5.65%)
  42. (0.00000) RY (35) O  1            s(  0.70%)p30.11( 21.11%)d41.25( 28.92%)
                                                  f46.20( 32.39%)g11.99(  8.41%)
                                                  h 3.62(  2.54%)i 8.47(  5.94%)
  43. (0.00000) RY (36) O  1            s(  3.01%)p 5.27( 15.84%)d 9.17( 27.58%)
                                                  f 5.99( 18.01%)g 9.44( 28.37%)
                                                  h 1.62(  4.88%)i 0.77(  2.32%)
  44. (0.00000) RY (37) O  1            s(  0.00%)p 1.00( 34.73%)d 1.41( 49.11%)
                                                  f 0.23(  7.86%)g 0.20(  6.83%)
                                                  h 0.04(  1.45%)i 0.00(  0.02%)
  45. (0.00000) RY (38) O  1            s(  0.31%)p 8.67(  2.65%)d99.99( 41.97%)
                                                  f99.99( 37.45%)g44.33( 13.55%)
                                                  h 8.57(  2.62%)i 4.73(  1.45%)
  46. (0.00000) RY (39) O  1            s(  1.29%)p 7.14(  9.18%)d 9.86( 12.69%)
                                                  f22.77( 29.30%)g29.81( 38.36%)
                                                  h 2.72(  3.50%)i 4.42(  5.68%)
  47. (0.00000) RY (40) O  1            s(  0.51%)p15.01(  7.61%)d46.79( 23.71%)
                                                  f23.74( 12.03%)g72.07( 36.52%)
                                                  h10.30(  5.22%)i28.40( 14.39%)
  48. (0.00000) RY (41) O  1            s(  0.43%)p20.64(  8.94%)d54.17( 23.47%)
                                                  f67.46( 29.23%)g67.54( 29.26%)
                                                  h15.03(  6.51%)i 4.96(  2.15%)
  49. (0.00000) RY (42) O  1            s(  0.00%)p 1.00( 14.05%)d 4.77( 67.02%)
                                                  f 0.96( 13.53%)g 0.33(  4.65%)
                                                  h 0.05(  0.71%)i 0.00(  0.03%)
  50. (0.00000) RY (43) O  1            s(  0.00%)p 1.00( 13.66%)d 4.07( 55.54%)
                                                  f 1.85( 25.32%)g 0.37(  5.11%)
                                                  h 0.02(  0.32%)i 0.00(  0.05%)
  51. (0.00000) RY (44) O  1            s(  0.33%)p25.73(  8.49%)d57.43( 18.94%)
                                                  f99.99( 47.74%)g42.04( 13.87%)
                                                  h28.98(  9.56%)i 3.26(  1.07%)
  52. (0.00000) RY (45) O  1            s(  0.12%)p28.58(  3.39%)d99.99( 18.63%)
                                                  f99.99( 17.84%)g99.99( 52.90%)
                                                  h23.02(  2.73%)i37.00(  4.39%)
  53. (0.00000) RY (46) O  1            s(  0.30%)p15.26(  4.60%)d43.71( 13.16%)
                                                  f99.99( 34.90%)g99.99( 35.33%)
                                                  h22.88(  6.89%)i16.04(  4.83%)
  54. (0.00000) RY (47) O  1            s(  2.33%)p 6.07( 14.11%)d18.87( 43.88%)
                                                  f 9.12( 21.21%)g 3.86(  8.97%)
                                                  h 2.63(  6.11%)i 1.46(  3.40%)
  55. (0.00000) RY (48) O  1            s(  0.00%)p 1.00(  7.27%)d 4.62( 33.61%)
                                                  f 2.55( 18.54%)g 5.28( 38.36%)
                                                  h 0.29(  2.10%)i 0.02(  0.12%)
  56. (0.00000) RY (49) O  1            s(  0.00%)p 1.00( 15.95%)d 3.52( 56.17%)
[...]
 Molecular unit  1  (H2O)
 ------ Lewis --------------------------------------
    1. CR ( 1) O  1             2.00000   -20.56178
    2. LP ( 1) O  1             1.99875    -0.79604  144(v),234(v)
    3. LP ( 2) O  1             1.99800    -0.50585  143(v),233(v)
    4. BD ( 1) O  1- H  2       1.99937    -0.92377  235(v)
    5. BD ( 1) O  1- H  3       1.99937    -0.92377  145(v)
 ------ non-Lewis ----------------------------------
    6. BD*( 1) O  1- H  2       0.00016     0.73646
    7. BD*( 1) O  1- H  3       0.00016     0.73646
    8. RY ( 1) O  1             0.00000    10.72646
    9. RY ( 2) O  1             0.00000    17.27724
   10. RY ( 3) O  1             0.00000    14.23695
   11. RY ( 4) O  1             0.00000    20.36230
   12. RY ( 5) O  1             0.00000    20.83666
   13. RY ( 6) O  1             0.00000    15.77504
   14. RY ( 7) O  1             0.00000    16.36750
   15. RY ( 8) O  1             0.00000    20.30665
   16. RY ( 9) O  1             0.00000    17.09712
   17. RY (10) O  1             0.00000    19.01493
   18. RY (11) O  1             0.00000    17.09138
   19. RY (12) O  1             0.00000    14.94844
   20. RY (13) O  1             0.00000    27.95688
   21. RY (14) O  1             0.00000    15.00636
   22. RY (15) O  1             0.00000    23.61306
   23. RY (16) O  1             0.00000    11.11480
   24. RY (17) O  1             0.00000    15.89484
   25. RY (18) O  1             0.00000    12.50924
   26. RY (19) O  1             0.00000    18.07542
   27. RY (20) O  1             0.00000    26.96922
   28. RY (21) O  1             0.00000    20.03471
   29. RY (22) O  1             0.00000    15.32211
   30. RY (23) O  1             0.00000    19.02771
   31. RY (24) O  1             0.00000    13.50871
   32. RY (25) O  1             0.00000    14.29657
   33. RY (26) O  1             0.00000    17.80162
   34. RY (27) O  1             0.00000    14.13460
   35. RY (28) O  1             0.00000    17.94997
   36. RY (29) O  1             0.00000    18.05122
   37. RY (30) O  1             0.00000    15.00747
   38. RY (31) O  1             0.00000    15.29140
   39. RY (32) O  1             0.00000    14.96547
   40. RY (33) O  1             0.00000    19.39187
   41. RY (34) O  1             0.00000    14.43272
   42. RY (35) O  1             0.00000    18.92155
   43. RY (36) O  1             0.00000    16.24447
   44. RY (37) O  1             0.00000    11.96804
   45. RY (38) O  1             0.00000    20.21590
   46. RY (39) O  1             0.00000    15.98002
   47. RY (40) O  1             0.00000    18.71159
   48. RY (41) O  1             0.00000    22.17289
   49. RY (42) O  1             0.00000    11.24709
   50. RY (43) O  1             0.00000    16.33985
   51. RY (44) O  1             0.00000    11.34497
   52. RY (45) O  1             0.00000    15.79912
   53. RY (46) O  1             0.00000    18.20159
   54. RY (47) O  1             0.00000    14.25741
   55. RY (48) O  1             0.00000    19.16922
   56. RY (49) O  1             0.00000    17.47605
   57. RY (50) O  1             0.00000    11.72857
   58. RY (51) O  1             0.00000     9.03703
   59. RY (52) O  1             0.00000    13.22793
   60. RY (53) O  1             0.00000    10.72263
   61. RY (54) O  1             0.00000    18.71504
   62. RY (55) O  1             0.00000     6.16487
   63. RY (56) O  1             0.00000    23.79796
   64. RY (57) O  1             0.00000    14.02791
   65. RY (58) O  1             0.00000    15.12110
   66. RY (59) O  1             0.00000    21.23382
   67. RY (60) O  1             0.00000    15.47546
   68. RY (61) O  1             0.00000    15.85549
   69. RY (62) O  1             0.00000    13.76354
   70. RY (63) O  1             0.00000    15.43312
   71. RY (64) O  1             0.00000    16.04742
   72. RY (65) O  1             0.00000    15.75937
   73. RY (66) O  1             0.00000    18.63298
   74. RY (67) O  1             0.00000    15.78498
   75. RY (68) O  1             0.00000    16.44383
   76. RY (69) O  1             0.00000    17.19153
   77. RY (70) O  1             0.00000    20.77040
   78. RY (71) O  1             0.00000    12.05480
   79. RY (72) O  1             0.00000    13.33484
   80. RY (73) O  1             0.00000    18.13508
   81. RY (74) O  1             0.00000    21.17032
   82. RY (75) O  1             0.00000    21.82185
   83. RY (76) O  1             0.00000    13.37882
   84. RY (77) O  1             0.00000    11.87321
   85. RY (78) O  1             0.00000     9.68547
   86. RY (79) O  1             0.00000    17.42995
   87. RY (80) O  1             0.00000    12.15979
   88. RY (81) O  1             0.00000    19.88365
   89. RY (82) O  1             0.00000    12.61402
   90. RY (83) O  1             0.00000    15.10597
   91. RY (84) O  1             0.00000    13.97735
   92. RY (85) O  1             0.00000    19.19013
   93. RY (86) O  1             0.00000    17.08870
   94. RY (87) O  1             0.00000    19.97841
   95. RY (88) O  1             0.00000    11.33424
   96. RY (89) O  1             0.00000    14.54244
   97. RY (90) O  1             0.00000    17.03099
   98. RY (91) O  1             0.00000    13.90469
   99. RY (92) O  1             0.00000    18.61806
  100. RY (93) O  1             0.00000    13.60401
  101. RY (94) O  1             0.00000    16.99034
  102. RY (95) O  1             0.00000    19.46083
  103. RY (96) O  1             0.00000    15.76818
  104. RY (97) O  1             0.00000    15.65934
  105. RY (98) O  1             0.00000    19.46544
  106. RY (99) O  1             0.00000    16.97847
  107. RY (**) O  1             0.00000    14.00492
  108. RY (**) O  1             0.00000    14.87511
  109. RY (**) O  1             0.00000    14.56540
  110. RY (**) O  1             0.00000    11.30978
  111. RY (**) O  1             0.00000    14.18443
  112. RY (**) O  1             0.00000    13.58660
  113. RY (**) O  1             0.00000    13.97259
  114. RY (**) O  1             0.00000    14.60418
  115. RY (**) O  1             0.00000    15.33332
  116. RY (**) O  1             0.00000    12.74033
  117. RY (**) O  1             0.00000    13.60618
  118. RY (**) O  1             0.00000    15.96253
  119. RY (**) O  1             0.00000    11.61278
  120. RY (**) O  1             0.00000    16.92167
  121. RY (**) O  1             0.00000    13.98615
  122. RY (**) O  1             0.00000    12.83819
  123. RY (**) O  1             0.00000    12.75832
  124. RY (**) O  1             0.00000    21.26473
  125. RY (**) O  1             0.00000    17.81879
  126. RY (**) O  1             0.00000    20.00252
  127. RY (**) O  1             0.00000    13.51772
  128. RY (**) O  1             0.00000    20.55930
  129. RY (**) O  1             0.00000    20.44809
  130. RY (**) O  1             0.00000    18.88996
  131. RY (**) O  1             0.00000    14.53613
  132. RY (**) O  1             0.00000    13.46060
  133. RY (**) O  1             0.00000    22.07604
  134. RY (**) O  1             0.00000    22.54145
  135. RY (**) O  1             0.00000    11.53066
  136. RY (**) O  1             0.00000    15.41616
  137. RY (**) O  1             0.00000    22.43901
  138. RY (**) O  1             0.00000    22.15331
  139. RY (**) O  1             0.00000    19.57181
  140. RY (**) O  1             0.00000    22.37202
  141. RY (**) O  1             0.00000    19.34673
  142. RY (**) O  1             0.00000    19.66199
  143. RY ( 1) H  2             0.00100     2.33649
  144. RY ( 2) H  2             0.00066     2.71171
  145. RY ( 3) H  2             0.00043     2.90583
  146. RY ( 4) H  2             0.00000    11.12788
  147. RY ( 5) H  2             0.00000    12.22102
  148. RY ( 6) H  2             0.00000    10.40552
  149. RY ( 7) H  2             0.00000    17.31958
  150. RY ( 8) H  2             0.00000    17.68300
  151. RY ( 9) H  2             0.00000    10.53950
  152. RY (10) H  2             0.00000    14.94852
  153. RY (11) H  2             0.00000    17.53426
  154. RY (12) H  2             0.00000    14.87577
  155. RY (13) H  2             0.00000     8.93055
  156. RY (14) H  2             0.00000    12.63080
  157. RY (15) H  2             0.00000    12.02999
  158. RY (16) H  2             0.00000    17.11785
  159. RY (17) H  2             0.00000    20.58268
  160. RY (18) H  2             0.00000    12.31170
  161. RY (19) H  2             0.00000    10.98290
  162. RY (20) H  2             0.00000    14.42211
  163. RY (21) H  2             0.00000    11.31694
  164. RY (22) H  2             0.00000    13.36639
  165. RY (23) H  2             0.00000    15.89847
  166. RY (24) H  2             0.00000    19.95311
  167. RY (25) H  2             0.00000    14.62682
  168. RY (26) H  2             0.00000    14.84000
  169. RY (27) H  2             0.00000    12.52310
  170. RY (28) H  2             0.00000    13.96800
  171. RY (29) H  2             0.00000    12.70871
  172. RY (30) H  2             0.00000    12.54025
  173. RY (31) H  2             0.00000    10.42581
  174. RY (32) H  2             0.00000    11.72816
  175. RY (33) H  2             0.00000    12.20596
  176. RY (34) H  2             0.00000    12.50557
  177. RY (35) H  2             0.00000     7.95125
  178. RY (36) H  2             0.00000    10.69153
  179. RY (37) H  2             0.00000    10.11878
  180. RY (38) H  2             0.00000    11.01157
  181. RY (39) H  2             0.00000    14.90977
  182. RY (40) H  2             0.00000     7.54106
  183. RY (41) H  2             0.00000     9.34767
  184. RY (42) H  2             0.00000     9.86232
  185. RY (43) H  2             0.00000    12.84450
  186. RY (44) H  2             0.00000    11.07643
  187. RY (45) H  2             0.00000    16.40500
  188. RY (46) H  2             0.00000    11.19366
  189. RY (47) H  2             0.00000    14.22205
  190. RY (48) H  2             0.00000    10.98045
  191. RY (49) H  2             0.00000    11.38938
  192. RY (50) H  2             0.00000    11.23697
  193. RY (51) H  2             0.00000    12.41841
  194. RY (52) H  2             0.00000    11.57248
  195. RY (53) H  2             0.00000    13.35155
  196. RY (54) H  2             0.00000    14.16033
  197. RY (55) H  2             0.00000     9.82637
  198. RY (56) H  2             0.00000    10.15284
  199. RY (57) H  2             0.00000    14.03411
  200. RY (58) H  2             0.00000    12.35914
  201. RY (59) H  2             0.00000    11.31934
  202. RY (60) H  2             0.00000    15.23695
  203. RY (61) H  2             0.00000    15.94413
  204. RY (62) H  2             0.00000    13.84827
  205. RY (63) H  2             0.00000    14.18893
  206. RY (64) H  2             0.00000    10.21954
  207. RY (65) H  2             0.00000     8.81648
  208. RY (66) H  2             0.00000    15.44377
  209. RY (67) H  2             0.00000    11.59801
  210. RY (68) H  2             0.00000    13.71529
  211. RY (69) H  2             0.00000    13.89810
  212. RY (70) H  2             0.00000    16.00128
  213. RY (71) H  2             0.00000    11.56148
  214. RY (72) H  2             0.00000    12.12691
  215. RY (73) H  2             0.00000    10.22638
  216. RY (74) H  2             0.00000    10.91292
  217. RY (75) H  2             0.00000    15.67427
  218. RY (76) H  2             0.00000    13.65531
  219. RY (77) H  2             0.00000    12.47073
  220. RY (78) H  2             0.00000    12.82658
  221. RY (79) H  2             0.00000    16.72459
  222. RY (80) H  2             0.00000    15.08888
  223. RY (81) H  2             0.00000    16.83949
  224. RY (82) H  2             0.00000    17.36690
  225. RY (83) H  2             0.00000    13.48778
  226. RY (84) H  2             0.00000    16.10906
  227. RY (85) H  2             0.00000    15.18639
  228. RY (86) H  2             0.00000    13.61095
  229. RY (87) H  2             0.00000    16.28789
  230. RY (88) H  2             0.00000    13.56725
  231. RY (89) H  2             0.00000    12.18206
  232. RY (90) H  2             0.00000    18.10026
  233. RY ( 1) H  3             0.00100     2.33649
  234. RY ( 2) H  3             0.00066     2.71171
  235. RY ( 3) H  3             0.00043     2.90583
  236. RY ( 4) H  3             0.00000    11.12789
  237. RY ( 5) H  3             0.00000    11.66914
  238. RY ( 6) H  3             0.00000    21.20241
  239. RY ( 7) H  3             0.00000     7.14450
  240. RY ( 8) H  3             0.00000    10.50700
  241. RY ( 9) H  3             0.00000    15.45515
  242. RY (10) H  3             0.00000    12.10683
  243. RY (11) H  3             0.00000     8.80179
  244. RY (12) H  3             0.00000    15.89334
  245. RY (13) H  3             0.00000    17.02371
  246. RY (14) H  3             0.00000    10.99240
  247. RY (15) H  3             0.00000    15.22343
  248. RY (16) H  3             0.00000    15.10288
  249. RY (17) H  3             0.00000    10.43498
  250. RY (18) H  3             0.00000    13.64803
  251. RY (19) H  3             0.00000    14.89564
  252. RY (20) H  3             0.00000    12.50264
  253. RY (21) H  3             0.00000    11.28413
  254. RY (22) H  3             0.00000     6.32645
  255. RY (23) H  3             0.00000    16.11330
  256. RY (24) H  3             0.00000     8.32428
  257. RY (25) H  3             0.00000    18.04013
  258. RY (26) H  3             0.00000    22.71624
  259. RY (27) H  3             0.00000    13.50629
  260. RY (28) H  3             0.00000    13.79746
  261. RY (29) H  3             0.00000    11.55248
  262. RY (30) H  3             0.00000    12.02580
  263. RY (31) H  3             0.00000    11.70608
  264. RY (32) H  3             0.00000    10.28242
  265. RY (33) H  3             0.00000    14.52072
  266. RY (34) H  3             0.00000    15.21013
  267. RY (35) H  3             0.00000    15.59201
  268. RY (36) H  3             0.00000    11.57033
  269. RY (37) H  3             0.00000    15.01613
  270. RY (38) H  3             0.00000    13.16477
  271. RY (39) H  3             0.00000    12.27017
  272. RY (40) H  3             0.00000    13.11356
  273. RY (41) H  3             0.00000    11.69271
  274. RY (42) H  3             0.00000    14.73522
  275. RY (43) H  3             0.00000    15.17733
  276. RY (44) H  3             0.00000    13.31060
  277. RY (45) H  3             0.00000     4.03598
  278. RY (46) H  3             0.00000    13.00459
  279. RY (47) H  3             0.00000     7.55301
  280. RY (48) H  3             0.00000    14.42949
  281. RY (49) H  3             0.00000    11.85375
  282. RY (50) H  3             0.00000    13.10026
  283. RY (51) H  3             0.00000    13.80894
  284. RY (52) H  3             0.00000    11.53452
  285. RY (53) H  3             0.00000    12.21226
  286. RY (54) H  3             0.00000     9.01130
  287. RY (55) H  3             0.00000     8.31051
  288. RY (56) H  3             0.00000    13.19442
  289. RY (57) H  3             0.00000    12.93069
  290. RY (58) H  3             0.00000    11.04140
  291. RY (59) H  3             0.00000     5.91844
  292. RY (60) H  3             0.00000     9.50767
  293. RY (61) H  3             0.00000    16.98311
  294. RY (62) H  3             0.00000    14.87906
  295. RY (63) H  3             0.00000    14.76439
  296. RY (64) H  3             0.00000    14.10958
  297. RY (65) H  3             0.00000    13.84916
  298. RY (66) H  3             0.00000    12.85789
  299. RY (67) H  3             0.00000    17.53549
  300. RY (68) H  3             0.00000    12.52950
  301. RY (69) H  3             0.00000    19.04712
  302. RY (70) H  3             0.00000    10.71294
  303. RY (71) H  3             0.00000    12.49111
  304. RY (72) H  3             0.00000    16.38811
  305. RY (73) H  3             0.00000    11.22861
  306. RY (74) H  3             0.00000     8.64562
  307. RY (75) H  3             0.00000    13.97898
  308. RY (76) H  3             0.00000    13.64195
  309. RY (77) H  3             0.00000    15.81319
  310. RY (78) H  3             0.00000    15.62871
  311. RY (79) H  3             0.00000    10.33454
  312. RY (80) H  3             0.00000    12.49620
  313. RY (81) H  3             0.00000    11.72917
  314. RY (82) H  3             0.00000    12.73384
  315. RY (83) H  3             0.00000    14.39723
  316. RY (84) H  3             0.00000    17.04215
  317. RY (85) H  3             0.00000    16.95561
  318. RY (86) H  3             0.00000    13.80472
  319. RY (87) H  3             0.00000    17.67212
  320. RY (88) H  3             0.00000    14.89421
  321. RY (89) H  3             0.00000    16.51673
  322. RY (90) H  3             0.00000    17.27600
          -------------------------------
                 Total Lewis    9.99549  ( 99.9549%)
           Valence non-Lewis    0.00033  (  0.0033%)
           Rydberg non-Lewis    0.00418  (  0.0418%)
          -------------------------------
               Total unit  1   10.00000  (100.0000%)
              Charge unit  1    0.00000

 $CHOOSE
   LONE 1 2 END
   BOND S 1 2 S 1 3 END
 $END

 NBO analysis completed in 4.65 CPU seconds (5 wall seconds)
 Maximum scratch memory used by NBO was 2627912 words (20.05 MB)
 Maximum scratch memory used by G09NBO was 165646 words (1.26 MB)

 Read Unf file /scr/ericg/h2o/Gau-23606.EUF:
 Label Gaussian matrix elements                                         IVers= 1 NLab= 2 Version=ES64L-G09RevE.01
 Title Water...rhf/cc-pV6Z//idealized                                  
 NAtoms=     3 NBasis=   322 NBsUse=   322 ICharg=     0 Multip=     1 NE=    10 Len12L=8 Len4L=8
 Label GAUSSIAN SCALARS                                                 NI= 1 NR= 1 NTot=       1 LenBuf=    2000 N=    1000       1       1       1       1
 Label NPA CHARGES                                                      NI= 0 NR= 1 NTot=       3 LenBuf=    4000 N=       3       0       0       0       0
 Recovered energy= -76.0668426584     dipole=      0.000000000000      0.000000000000      0.000000000000
 1\1\GINC-NEUTRON\SP\RHF\CC-pV6Z\H2O1\ERICG\18-May-2020\0\\# rhf/cc-pV6
 Z pop=nbo6\\Water...rhf/cc-pV6Z//idealized\\0,1\O,0,0.,0.,0.110851\H,0
 ,0.,0.783837,-0.443405\H,0,0.,-0.783837,-0.443405\\Version=ES64L-G09Re
 vE.01\State=1-A1\HF=-76.0668427\RMSD=3.737e-09\Dipole=0.,0.,-0.751426\
 Quadrupole=-1.1643253,1.4645791,-0.3002538,0.,0.,0.\PG=C02V [C2(O1),SG
 V(H2)]\\@


 EXPERIMENTALISTS THINK SILICON IS REALLY FUN TO USE
     ITS PLACE IN NOVEL COMPOUNDS IS CERTAIN TO AMUSE
 THEY SIT ALL DAY IN LABORATORIES MAKING ALL THIS SLUDGE
     "LOADED WITH THE SILICON THEY SAY", TO ME IT LOOKS LIKE FUDGE.
 FOR HAPPY THOUGH THEY BE WITH CRUD, I'D LIKE TO KNOW A LITTLE
      ABOUT THE PI BONDS ON THE EDGE AND SIGMAS IN THE MIDDLE.

 SO LETS DERIVE A WAVEFUNCTION.....6-31G*
     USE AN OPTIMAL GEOMETRY AND SEE WHERE ELECTRONS ARE.
 BUT WHAT OF CORRELATION?  ASKS THE WIRY LITTLE SKEPTIC.
     WE'LL THROW IN PERTURBATION AS AN ELECTRON ANTISEPTIC.
 AND WHEN THE PROGRAM GIVES US ANSWERS IN THEM WE CAN TRUST
     SINCE NOBODY CAN MAKE THE STUFF, WE HAVE NO CHOICE, WE MUST.

 SO THEORY GUYS HAVE GOT IT MADE, IN ROOMS FREE OF POLLUTION.
     INSTEAD OF PROBLEMS WITH THE REFLUX, THEY HAVE ONLY SOLUTIONS.
 AND WHEN THE FEDS ANNOUNCE THE LIST OF CARCINOGENIC TERRORS,
     THE THEORISTS SIT SAFELY AT THEIR TERMINALS FIXING ERRORS.
 IN OTHER WORDS, EXPERIMENTALISTS WILL LIKELY DIE OF CANCER
     FROM WORKING HARD YET FRUITLESSLY...TILL THEORY GIVES THE ANSWER.
          -- THOMAS A. HOLME, 1983
 Job cpu time:       0 days  0 hours 44 minutes 24.9 seconds.
 File lengths (MBytes):  RWF=     59 Int=      0 D2E=      0 Chk=      6 Scr=      1
 Normal termination of Gaussian 09 at Mon May 18 14:52:45 2020.
