 Entering Gaussian System, Link 0=g09
 Initial command:
 /opt/g09.e01/g09/l1.exe "/scr/ericg/opt/Gau-20939.inp" -scrdir="/scr/ericg/opt/"
 Entering Link 1 = /opt/g09.e01/g09/l1.exe PID=     20941.
  
 Copyright (c) 1988,1990,1992,1993,1995,1998,2003,2009,2015,
            Gaussian, Inc.  All Rights Reserved.
  
 This is part of the Gaussian(R) 09 program.  It is based on
 the Gaussian(R) 03 system (copyright 2003, Gaussian, Inc.),
 the Gaussian(R) 98 system (copyright 1998, Gaussian, Inc.),
 the Gaussian(R) 94 system (copyright 1995, Gaussian, Inc.),
 the Gaussian 92(TM) system (copyright 1992, Gaussian, Inc.),
 the Gaussian 90(TM) system (copyright 1990, Gaussian, Inc.),
 the Gaussian 88(TM) system (copyright 1988, Gaussian, Inc.),
 the Gaussian 86(TM) system (copyright 1986, Carnegie Mellon
 University), and the Gaussian 82(TM) system (copyright 1983,
 Carnegie Mellon University). Gaussian is a federally registered
 trademark of Gaussian, Inc.
  
 This software contains proprietary and confidential information,
 including trade secrets, belonging to Gaussian, Inc.
  
 This software is provided under written license and may be
 used, copied, transmitted, or stored only in accord with that
 written license.
  
 The following legend is applicable only to US Government
 contracts under FAR:
  
                    RESTRICTED RIGHTS LEGEND
  
 Use, reproduction and disclosure by the US Government is
 subject to restrictions as set forth in subparagraphs (a)
 and (c) of the Commercial Computer Software - Restricted
 Rights clause in FAR 52.227-19.
  
 Gaussian, Inc.
 340 Quinnipiac St., Bldg. 40, Wallingford CT 06492
  
  
 ---------------------------------------------------------------
 Warning -- This program may not be used in any manner that
 competes with the business of Gaussian, Inc. or will provide
 assistance to any competitor of Gaussian, Inc.  The licensee
 of this program is prohibited from giving any competitor of
 Gaussian, Inc. access to this program.  By using this program,
 the user acknowledges that Gaussian, Inc. is engaged in the
 business of creating and licensing software in the field of
 computational chemistry and represents and warrants to the
 licensee that it is not a competitor of Gaussian, Inc. and that
 it will not use this program in any manner prohibited above.
 ---------------------------------------------------------------
  

 Cite this work as:
 Gaussian 09, Revision E.01,
 M. J. Frisch, G. W. Trucks, H. B. Schlegel, G. E. Scuseria, 
 M. A. Robb, J. R. Cheeseman, G. Scalmani, V. Barone, B. Mennucci, 
 G. A. Petersson, H. Nakatsuji, M. Caricato, X. Li, H. P. Hratchian, 
 A. F. Izmaylov, J. Bloino, G. Zheng, J. L. Sonnenberg, M. Hada, 
 M. Ehara, K. Toyota, R. Fukuda, J. Hasegawa, M. Ishida, T. Nakajima, 
 Y. Honda, O. Kitao, H. Nakai, T. Vreven, J. A. Montgomery, Jr., 
 J. E. Peralta, F. Ogliaro, M. Bearpark, J. J. Heyd, E. Brothers, 
 K. N. Kudin, V. N. Staroverov, T. Keith, R. Kobayashi, J. Normand, 
 K. Raghavachari, A. Rendell, J. C. Burant, S. S. Iyengar, J. Tomasi, 
 M. Cossi, N. Rega, J. M. Millam, M. Klene, J. E. Knox, J. B. Cross, 
 V. Bakken, C. Adamo, J. Jaramillo, R. Gomperts, R. E. Stratmann, 
 O. Yazyev, A. J. Austin, R. Cammi, C. Pomelli, J. W. Ochterski, 
 R. L. Martin, K. Morokuma, V. G. Zakrzewski, G. A. Voth, 
 P. Salvador, J. J. Dannenberg, S. Dapprich, A. D. Daniels, 
 O. Farkas, J. B. Foresman, J. V. Ortiz, J. Cioslowski, 
 and D. J. Fox, Gaussian, Inc., Wallingford CT, 2013.
 
 ******************************************
 Gaussian 09:  ES64L-G09RevE.01 30-Nov-2015
                18-May-2020 
 ******************************************
 %NProcShared=4
 Will use up to    4 processors via shared memory.
 ------------------------
 # rhf/3-21g opt pop=nbo6
 ------------------------
 1/18=20,19=15,38=1/1,3;
 2/9=110,12=2,17=6,18=5,40=1/2;
 3/5=5,11=1,16=1,25=1,30=1,71=1,116=1/1,2,3;
 4//1;
 5/5=2,38=5/2;
 6/7=2,8=2,9=2,10=2,28=1,40=1,113=1,114=1,124=3103/1,12;
 7//1,2,3,16;
 1/18=20,19=15/3(2);
 2/9=110/2;
 99//99;
 2/9=110/2;
 3/5=5,11=1,16=1,25=1,30=1,71=1,116=1/1,2,3;
 4/5=5,16=3,69=1/1;
 5/5=2,38=5/2;
 7//1,2,3,16;
 1/18=20,19=15/3(-5);
 2/9=110/2;
 6/7=2,8=2,9=2,10=2,19=2,28=1,40=1,113=1,114=1,124=3103/1,12;
 99/9=1/99;
 ------------------------------------
 Methylamine...rhf/3-21g optimization
 ------------------------------------
 Symbolic Z-matrix:
 Charge =  0 Multiplicity = 1
 C
 N                    1     1.47 
 H                    1     1.09     2     109.4712 
 H                    1     1.09     2     109.4712  3     120.     0
 H                    1     1.09     2     109.4712  3     240.     0
 H                    2     1.01     1     109.4712  3     60.      0
 H                    2     1.01     1     109.4712  3     300.     0
 
     5 tetrahedral angles replaced.

 GradGradGradGradGradGradGradGradGradGradGradGradGradGradGradGradGradGrad
 Berny optimization.
 Initialization pass.
                           ----------------------------
                           !    Initial Parameters    !
                           ! (Angstroms and Degrees)  !
 --------------------------                            --------------------------
 ! Name  Definition              Value          Derivative Info.                !
 --------------------------------------------------------------------------------
 ! R1    R(1,2)                  1.47           estimate D2E/DX2                !
 ! R2    R(1,3)                  1.09           estimate D2E/DX2                !
 ! R3    R(1,4)                  1.09           estimate D2E/DX2                !
 ! R4    R(1,5)                  1.09           estimate D2E/DX2                !
 ! R5    R(2,6)                  1.01           estimate D2E/DX2                !
 ! R6    R(2,7)                  1.01           estimate D2E/DX2                !
 ! A1    A(2,1,3)              109.4712         estimate D2E/DX2                !
 ! A2    A(2,1,4)              109.4712         estimate D2E/DX2                !
 ! A3    A(2,1,5)              109.4712         estimate D2E/DX2                !
 ! A4    A(3,1,4)              109.4712         estimate D2E/DX2                !
 ! A5    A(3,1,5)              109.4712         estimate D2E/DX2                !
 ! A6    A(4,1,5)              109.4712         estimate D2E/DX2                !
 ! A7    A(1,2,6)              109.4712         estimate D2E/DX2                !
 ! A8    A(1,2,7)              109.4712         estimate D2E/DX2                !
 ! A9    A(6,2,7)              109.4712         estimate D2E/DX2                !
 ! D1    D(3,1,2,6)             60.0            estimate D2E/DX2                !
 ! D2    D(3,1,2,7)            -60.0            estimate D2E/DX2                !
 ! D3    D(4,1,2,6)            180.0            estimate D2E/DX2                !
 ! D4    D(4,1,2,7)             60.0            estimate D2E/DX2                !
 ! D5    D(5,1,2,6)            -60.0            estimate D2E/DX2                !
 ! D6    D(5,1,2,7)            180.0            estimate D2E/DX2                !
 --------------------------------------------------------------------------------
 Trust Radius=3.00D-01 FncErr=1.00D-07 GrdErr=1.00D-07
 Number of steps in this run=     31 maximum allowed number of steps=    100.
 GradGradGradGradGradGradGradGradGradGradGradGradGradGradGradGradGradGrad

                          Input orientation:                          
 ---------------------------------------------------------------------
 Center     Atomic      Atomic             Coordinates (Angstroms)
 Number     Number       Type             X           Y           Z
 ---------------------------------------------------------------------
      1          6           0        0.000000    0.000000    0.000000
      2          7           0        0.000000    0.000000    1.470000
      3          1           0        1.027662    0.000000   -0.363333
      4          1           0       -0.513831   -0.889981   -0.363333
      5          1           0       -0.513831    0.889981   -0.363333
      6          1           0        0.476119    0.824662    1.806667
      7          1           0        0.476119   -0.824662    1.806667
 ---------------------------------------------------------------------
                    Distance matrix (angstroms):
                    1          2          3          4          5
     1  C    0.000000
     2  N    1.470000   0.000000
     3  H    1.090000   2.101714   0.000000
     4  H    1.090000   2.101714   1.779963   0.000000
     5  H    1.090000   2.101714   1.779963   1.779963   0.000000
     6  H    2.042254   1.010000   2.386036   2.937499   2.386036
     7  H    2.042254   1.010000   2.386036   2.386036   2.937499
                    6          7
     6  H    0.000000
     7  H    1.649323   0.000000
 Stoichiometry    CH5N
 Framework group  CS[SG(CHN),X(H4)]
 Deg. of freedom     9
 Full point group                 CS      NOp   2
 Largest Abelian subgroup         CS      NOp   2
 Largest concise Abelian subgroup CS      NOp   2
                         Standard orientation:                         
 ---------------------------------------------------------------------
 Center     Atomic      Atomic             Coordinates (Angstroms)
 Number     Number       Type             X           Y           Z
 ---------------------------------------------------------------------
      1          6           0        0.052902    0.711852   -0.000000
      2          7           0        0.052902   -0.758148    0.000000
      3          1           0       -0.974760    1.075185   -0.000000
      4          1           0        0.566733    1.075185    0.889981
      5          1           0        0.566733    1.075185   -0.889981
      6          1           0       -0.423217   -1.094815   -0.824662
      7          1           0       -0.423217   -1.094815    0.824662
 ---------------------------------------------------------------------
 Rotational constants (GHZ):    102.4371449     22.9400653     21.9429790
 Standard basis: 3-21G (6D, 7F)
 There are    20 symmetry adapted cartesian basis functions of A'  symmetry.
 There are     8 symmetry adapted cartesian basis functions of A"  symmetry.
 There are    20 symmetry adapted basis functions of A'  symmetry.
 There are     8 symmetry adapted basis functions of A"  symmetry.
    28 basis functions,    45 primitive gaussians,    28 cartesian basis functions
     9 alpha electrons        9 beta electrons
       nuclear repulsion energy        42.0501645033 Hartrees.
 NAtoms=    7 NActive=    7 NUniq=    5 SFac= 1.96D+00 NAtFMM=   60 NAOKFM=F Big=F
 Integral buffers will be    131072 words long.
 Raffenetti 1 integral format.
 Two-electron integral symmetry is turned on.
 One-electron integrals computed using PRISM.
 NBasis=    28 RedAO= T EigKep=  3.39D-02  NBF=    20     8
 NBsUse=    28 1.00D-06 EigRej= -1.00D+00 NBFU=    20     8
 ExpMin= 1.83D-01 ExpMax= 2.43D+02 ExpMxC= 2.43D+02 IAcc=1 IRadAn=         1 AccDes= 0.00D+00
 Harris functional with IExCor=  205 and IRadAn=       1 diagonalized for initial guess.
 HarFok:  IExCor=  205 AccDes= 0.00D+00 IRadAn=         1 IDoV= 1 UseB2=F ITyADJ=14
 ICtDFT=  3500011 ScaDFX=  1.000000  1.000000  1.000000  1.000000
 FoFCou: FMM=F IPFlag=           0 FMFlag=      100000 FMFlg1=           0
         NFxFlg=           0 DoJE=T BraDBF=F KetDBF=T FulRan=T
         wScrn=  0.000000 ICntrl=     500 IOpCl=  0 I1Cent=   200000004 NGrid=           0
         NMat0=    1 NMatS0=      1 NMatT0=    0 NMatD0=    1 NMtDS0=    0 NMtDT0=    0
 Petite list used in FoFCou.
 Initial guess orbital symmetries:
       Occupied  (A') (A') (A') (A') (A") (A') (A') (A") (A')
       Virtual   (A') (A") (A') (A') (A') (A") (A') (A") (A') (A')
                 (A") (A') (A') (A") (A') (A") (A') (A') (A')
 The electronic state of the initial guess is 1-A'.
 Keep R1 ints in memory in symmetry-blocked form, NReq=913171.
 Requested convergence on RMS density matrix=1.00D-08 within 128 cycles.
 Requested convergence on MAX density matrix=1.00D-06.
 Requested convergence on             energy=1.00D-06.
 No special actions if energy rises.
 SCF Done:  E(RHF) =  -94.6794449579     A.U. after   10 cycles
            NFock= 10  Conv=0.92D-08     -V/T= 2.0023

 **********************************************************************

            Population analysis using the SCF density.

 **********************************************************************

 Orbital symmetries:
       Occupied  (A') (A') (A') (A') (A") (A') (A') (A") (A')
       Virtual   (A') (A') (A") (A') (A") (A') (A") (A') (A') (A")
                 (A') (A') (A') (A") (A') (A") (A') (A') (A')
 The electronic state is 1-A'.
 Alpha  occ. eigenvalues --  -15.44574 -11.18262  -1.16399  -0.89202  -0.65897
 Alpha  occ. eigenvalues --   -0.59281  -0.54924  -0.51707  -0.36873
 Alpha virt. eigenvalues --    0.26633   0.32933   0.33593   0.35708   0.38211
 Alpha virt. eigenvalues --    0.45003   0.94755   0.97787   0.98732   1.25922
 Alpha virt. eigenvalues --    1.26500   1.31120   1.34071   1.38102   1.51135
 Alpha virt. eigenvalues --    1.64211   1.66479   1.96672   2.83952
          Condensed to atoms (all electrons):
               1          2          3          4          5          6
     1  C    5.131782   0.241718   0.365805   0.376446   0.376446  -0.051565
     2  N    0.241718   6.975097  -0.053461  -0.033286  -0.033286   0.335798
     3  H    0.365805  -0.053461   0.595231  -0.035995  -0.035995  -0.001530
     4  H    0.376446  -0.033286  -0.035995   0.507123  -0.022797   0.003949
     5  H    0.376446  -0.033286  -0.035995  -0.022797   0.507123  -0.003215
     6  H   -0.051565   0.335798  -0.001530   0.003949  -0.003215   0.463218
     7  H   -0.051565   0.335798  -0.001530  -0.003215   0.003949  -0.033867
               7
     1  C   -0.051565
     2  N    0.335798
     3  H   -0.001530
     4  H   -0.003215
     5  H    0.003949
     6  H   -0.033867
     7  H    0.463218
 Mulliken charges:
               1
     1  C   -0.389067
     2  N   -0.768379
     3  H    0.167475
     4  H    0.207774
     5  H    0.207774
     6  H    0.287211
     7  H    0.287211
 Sum of Mulliken charges =  -0.00000
 Mulliken charges with hydrogens summed into heavy atoms:
               1
     1  C    0.193956
     2  N   -0.193956
 Electronic spatial extent (au):  <R**2>=             94.5727
 Charge=             -0.0000 electrons
 Dipole moment (field-independent basis, Debye):
    X=             -1.6248    Y=              0.6030    Z=              0.0000  Tot=              1.7331
 Quadrupole moment (field-independent basis, Debye-Ang):
   XX=            -14.7875   YY=            -14.2396   ZZ=            -12.3883
   XY=              2.4042   XZ=              0.0000   YZ=              0.0000
 Traceless Quadrupole moment (field-independent basis, Debye-Ang):
   XX=             -0.9823   YY=             -0.4345   ZZ=              1.4168
   XY=              2.4042   XZ=              0.0000   YZ=              0.0000
 Octapole moment (field-independent basis, Debye-Ang**2):
  XXX=             -1.5571  YYY=             -2.3060  ZZZ=             -0.0000  XYY=             -2.2719
  XXY=             -0.0605  XXZ=             -0.0000  XZZ=             -0.4615  YZZ=             -1.9439
  YYZ=             -0.0000  XYZ=             -0.0000
 Hexadecapole moment (field-independent basis, Debye-Ang**3):
 XXXX=            -21.8894 YYYY=            -72.7867 ZZZZ=            -21.7103 XXXY=             -1.0534
 XXXZ=             -0.0000 YYYX=              1.5508 YYYZ=              0.0000 ZZZX=              0.0000
 ZZZY=              0.0000 XXYY=            -15.8230 XXZZ=             -6.9770 YYZZ=            -13.6753
 XXYZ=              0.0000 YYXZ=              0.0000 ZZXY=              1.2810
 N-N= 4.205016450329D+01 E-N=-3.051826651242D+02  KE= 9.446581374173D+01
 Symmetry A'   KE= 8.997598149914D+01
 Symmetry A"   KE= 4.489832242588D+00
 Running external command "gaunbo6 R"
         input file       "/scr/ericg/opt/Gau-20941.EIn"
         output file      "/scr/ericg/opt/Gau-20941.EOu"
         message file     "/scr/ericg/opt/Gau-20941.EMs"
         fchk file        "/scr/ericg/opt/Gau-20941.EFC"
         mat. el file     "/scr/ericg/opt/Gau-20941.EUF"

 Writing Wrt12E file "/scr/ericg/opt/Gau-20941.EUF"
 Gaussian matrix elements                                         Version   1 NLab= 7 Len12L=8 Len4L=8
 Write GAUSSIAN SCALARS               from file   501 offset           0 to matrix element file.
 Write OVERLAP                        from file   514 offset           0 to matrix element file.
 Write CORE HAMILTONIAN ALPHA         from file   515 offset           0 to matrix element file.
 Write CORE HAMILTONIAN BETA          from file   515 offset         406 to matrix element file.
 Write KINETIC ENERGY                 from file   516 offset           0 to matrix element file.
 Write ORTHOGONAL BASIS               from file   685 offset           0 to matrix element file.
 Write DIPOLE INTEGRALS               from file   518 offset           0 to matrix element file.
 Array DIP VEL INTEGRALS               on  file    572 does not exist.
 Array R X DEL INTEGRALS               on  file    572 does not exist.
 Write ALPHA ORBITAL ENERGIES         from file     0 offset           0 to matrix element file.
 Write ALPHA MO COEFFICIENTS          from file 10524 offset           0 to matrix element file.
 Write ALPHA DENSITY MATRIX           from file     0 offset           0 to matrix element file.
 Write ALPHA SCF DENSITY MATRIX       from file 10528 offset           0 to matrix element file.
 Write ALPHA FOCK MATRIX              from file 10536 offset           0 to matrix element file.
 No 2e integrals to process.
 Perform NBO analysis...executing G09NBO...

 *********************************** NBO 7.0 ***********************************
             N A T U R A L   A T O M I C   O R B I T A L   A N D
          N A T U R A L   B O N D   O R B I T A L   A N A L Y S I S
 ************************ development version (D000000) ************************
  (c) Copyright 1996-2020 Board of Regents of the University of Wisconsin System
      on behalf of the Theoretical Chemistry Institute.  All rights reserved.

          Cite this program [NBO 7.0.9 (21-May-2020)] as:

          NBO 7.0.  E. D. Glendening, J. K. Badenhoop, A. E. Reed,
          J. E. Carpenter, J. A. Bohmann, C. M. Morales, P. Karafiloglou,
          C. R. Landis, and F. Weinhold, Theoretical Chemistry Institute,
          University of Wisconsin, Madison, WI (2018)

 Filename set to /scr/ericg/opt/Gau-20941

 Job title: Methylamine...rhf/3-21g optimization


 NATURAL POPULATIONS:  Natural atomic orbital occupancies

  NAO Atom No lang   Type(AO)    Occupancy      Energy
 -------------------------------------------------------
   1    C  1  s      Cor( 1s)     1.99978     -11.18041
   2    C  1  s      Val( 2s)     1.09591      -0.20750
   3    C  1  s      Ryd( 3s)     0.00073       1.95488
   4    C  1  px     Val( 2p)     1.21702      -0.07378
   5    C  1  px     Ryd( 3p)     0.00057       1.03028
   6    C  1  py     Val( 2p)     0.88475       0.00581
   7    C  1  py     Ryd( 3p)     0.00134       0.93224
   8    C  1  pz     Val( 2p)     1.24514      -0.08859
   9    C  1  pz     Ryd( 3p)     0.00058       1.01797

  10    N  2  s      Cor( 1s)     1.99983     -15.43259
  11    N  2  s      Val( 2s)     1.42891      -0.59515
  12    N  2  s      Ryd( 3s)     0.00020       2.75742
  13    N  2  px     Val( 2p)     1.80535      -0.32963
  14    N  2  px     Ryd( 3p)     0.00181       1.49143
  15    N  2  py     Val( 2p)     1.30895      -0.17328
  16    N  2  py     Ryd( 3p)     0.00110       1.56370
  17    N  2  pz     Val( 2p)     1.35214      -0.19174
  18    N  2  pz     Ryd( 3p)     0.00069       1.59491

  19    H  3  s      Val( 1s)     0.81292       0.14948
  20    H  3  s      Ryd( 2s)     0.00162       0.95090

  21    H  4  s      Val( 1s)     0.78036       0.17005
  22    H  4  s      Ryd( 2s)     0.00079       0.94552

  23    H  5  s      Val( 1s)     0.78036       0.17005
  24    H  5  s      Ryd( 2s)     0.00079       0.94552

  25    H  6  s      Val( 1s)     0.63801       0.21941
  26    H  6  s      Ryd( 2s)     0.00117       0.99884

  27    H  7  s      Val( 1s)     0.63801       0.21941
  28    H  7  s      Ryd( 2s)     0.00117       0.99884


 Summary of Natural Population Analysis:

                                     Natural Population
             Natural    ---------------------------------------------
  Atom No    Charge        Core      Valence    Rydberg      Total
 --------------------------------------------------------------------
    C  1   -0.44582      1.99978     4.44282    0.00322     6.44582
    N  2   -0.89897      1.99983     5.89535    0.00379     7.89897
    H  3    0.18546      0.00000     0.81292    0.00162     0.81454
    H  4    0.21885      0.00000     0.78036    0.00079     0.78115
    H  5    0.21885      0.00000     0.78036    0.00079     0.78115
    H  6    0.36082      0.00000     0.63801    0.00117     0.63918
    H  7    0.36082      0.00000     0.63801    0.00117     0.63918
 ====================================================================
 * Total *  0.00000      3.99961    13.98783    0.01255    18.00000

                                 Natural Population
 ---------------------------------------------------------
   Core                       3.99961 ( 99.9903% of    4)
   Valence                   13.98783 ( 99.9131% of   14)
   Natural Minimal Basis     17.98745 ( 99.9303% of   18)
   Natural Rydberg Basis      0.01255 (  0.0697% of   18)
 ---------------------------------------------------------

    Atom No         Natural Electron Configuration
 ----------------------------------------------------------------------------
      C  1      [core]2s( 1.10)2p( 3.35)
      N  2      [core]2s( 1.43)2p( 4.47)
      H  3            1s( 0.81)
      H  4            1s( 0.78)
      H  5            1s( 0.78)
      H  6            1s( 0.64)
      H  7            1s( 0.64)


 NATURAL BOND ORBITAL ANALYSIS:

                            Occupancies       Lewis Structure    Low   High
         Max    Occ     -------------------  -----------------   occ   occ
  Cycle  Ctr   Thresh    Lewis   non-Lewis     CR  BD  nC  LP    (L)   (NL)
 ============================================================================
    1     2     1.90    17.95153   0.04847      2   6   0   1     0      0
 ----------------------------------------------------------------------------

 Structure accepted: No low occupancy Lewis orbitals

 -------------------------------------------------------
   Core                      3.99961 ( 99.990% of   4)
   Valence Lewis            13.95192 ( 99.657% of  14)
  ==================      =============================
   Total Lewis              17.95153 ( 99.731% of  18)
  -----------------------------------------------------
   Valence non-Lewis         0.03950 (  0.219% of  18)
   Rydberg non-Lewis         0.00896 (  0.050% of  18)
  ==================      =============================
   Total non-Lewis           0.04847 (  0.269% of  18)
 -------------------------------------------------------


     (Occupancy)   Bond orbital / Coefficients / Hybrids
 ------------------ Lewis ------------------------------------------------------
   1. (1.99978) CR ( 1) C  1            s(100.00%)
                                         1.0000  0.0000  0.0000  0.0000  0.0000
                                         0.0000  0.0000  0.0000  0.0000
   2. (1.99983) CR ( 1) N  2            s(100.00%)
                                         1.0000  0.0000  0.0000  0.0000  0.0000
                                         0.0000  0.0000  0.0000  0.0000
   3. (1.97796) LP ( 1) N  2            s( 18.05%)p 4.54( 81.95%)
                                         0.0000  0.4249  0.0002  0.8476 -0.0158
                                        -0.3174  0.0041  0.0000  0.0000
   4. (1.99846) BD ( 1) C  1- N  2
               ( 40.06%)   0.6329* C  1 s( 21.83%)p 3.58( 78.17%)
                                         0.0000  0.4666  0.0240 -0.0024  0.0082
                                        -0.8836 -0.0305  0.0000  0.0000
               ( 59.94%)   0.7742* N  2 s( 30.81%)p 2.25( 69.19%)
                                         0.0000  0.5551 -0.0010  0.0332  0.0101
                                         0.8311 -0.0005  0.0000  0.0000
   5. (1.99858) BD ( 1) C  1- H  3
               ( 59.79%)   0.7733* C  1 s( 25.82%)p 2.87( 74.18%)
                                         0.0000  0.5081 -0.0069 -0.8177  0.0057
                                         0.2702  0.0092  0.0000  0.0000
               ( 40.21%)   0.6341* H  3 s(100.00%)
                                         1.0000  0.0030
   6. (1.99406) BD ( 1) C  1- H  4
               ( 61.10%)   0.7817* C  1 s( 26.20%)p 2.82( 73.80%)
                                         0.0000  0.5118 -0.0039  0.4070 -0.0016
                                         0.2690  0.0016  0.7070 -0.0104
               ( 38.90%)   0.6237* H  4 s(100.00%)
                                         1.0000  0.0008
   7. (1.99406) BD ( 1) C  1- H  5
               ( 61.10%)   0.7817* C  1 s( 26.20%)p 2.82( 73.80%)
                                         0.0000  0.5118 -0.0039  0.4070 -0.0016
                                         0.2690  0.0016 -0.7070  0.0104
               ( 38.90%)   0.6237* H  5 s(100.00%)
                                         1.0000  0.0008
   8. (1.99440) BD ( 1) N  2- H  6
               ( 68.15%)   0.8256* N  2 s( 25.55%)p 2.91( 74.45%)
                                         0.0000  0.5055  0.0005 -0.3741  0.0055
                                        -0.3228 -0.0179 -0.7070 -0.0092
               ( 31.85%)   0.5643* H  6 s(100.00%)
                                         1.0000  0.0020
   9. (1.99440) BD ( 1) N  2- H  7
               ( 68.15%)   0.8256* N  2 s( 25.55%)p 2.91( 74.45%)
                                         0.0000  0.5055  0.0005 -0.3741  0.0055
                                        -0.3228 -0.0179  0.7070  0.0092
               ( 31.85%)   0.5643* H  7 s(100.00%)
                                         1.0000  0.0020
 ---------------- non-Lewis ----------------------------------------------------
  10. (0.00009) BD*( 1) C  1- N  2
               ( 59.94%)   0.7742* C  1 s( 21.83%)p 3.58( 78.17%)
               ( 40.06%)  -0.6329* N  2 s( 30.81%)p 2.25( 69.19%)
  11. (0.01567) BD*( 1) C  1- H  3
               ( 40.21%)   0.6341* C  1 s( 25.82%)p 2.87( 74.18%)
                                         0.0000 -0.5081  0.0069  0.8177 -0.0057
                                        -0.2702 -0.0092  0.0000  0.0000
               ( 59.79%)  -0.7733* H  3 s(100.00%)
                                        -1.0000 -0.0030
  12. (0.00763) BD*( 1) C  1- H  4
               ( 38.90%)   0.6237* C  1 s( 26.20%)p 2.82( 73.80%)
                                         0.0000 -0.5118  0.0039 -0.4070  0.0016
                                        -0.2690 -0.0016 -0.7070  0.0104
               ( 61.10%)  -0.7817* H  4 s(100.00%)
                                        -1.0000 -0.0008
  13. (0.00763) BD*( 1) C  1- H  5
               ( 38.90%)   0.6237* C  1 s( 26.20%)p 2.82( 73.80%)
                                         0.0000 -0.5118  0.0039 -0.4070  0.0016
                                        -0.2690 -0.0016  0.7070 -0.0104
               ( 61.10%)  -0.7817* H  5 s(100.00%)
                                        -1.0000 -0.0008
  14. (0.00424) BD*( 1) N  2- H  6
               ( 31.85%)   0.5643* N  2 s( 25.55%)p 2.91( 74.45%)
                                         0.0000 -0.5055 -0.0005  0.3741 -0.0055
                                         0.3228  0.0179  0.7070  0.0092
               ( 68.15%)  -0.8256* H  6 s(100.00%)
                                        -1.0000 -0.0020
  15. (0.00424) BD*( 1) N  2- H  7
               ( 31.85%)   0.5643* N  2 s( 25.55%)p 2.91( 74.45%)
                                         0.0000 -0.5055 -0.0005  0.3741 -0.0055
                                         0.3228  0.0179 -0.7070 -0.0092
               ( 68.15%)  -0.8256* H  7 s(100.00%)
                                        -1.0000 -0.0020
  16. (0.00094) RY ( 1) C  1            s(  0.39%)p99.99( 99.61%)
                                         0.0000 -0.0094  0.0621 -0.0006  0.6792
                                         0.0283 -0.7307  0.0000  0.0000
  17. (0.00034) RY ( 2) C  1            s(  0.00%)p 1.00(100.00%)
                                         0.0000  0.0000  0.0000  0.0000  0.0000
                                         0.0000  0.0000  0.0147  0.9999
  18. (0.00020) RY ( 3) C  1            s( 88.34%)p 0.13( 11.66%)
                                         0.0000 -0.0035  0.9399 -0.0051 -0.2859
                                         0.0274 -0.1848  0.0000  0.0000
  19. (0.00001) RY ( 4) C  1            s( 11.21%)p 7.92( 88.79%)
  20. (0.00114) RY ( 1) N  2            s(  0.95%)p99.99( 99.05%)
                                         0.0000 -0.0064  0.0974  0.0190  0.9878
                                        -0.0084 -0.1196  0.0000  0.0000
  21. (0.00044) RY ( 2) N  2            s(  0.00%)p 1.00(100.00%)
                                         0.0000  0.0000  0.0000  0.0000  0.0000
                                         0.0000  0.0000 -0.0131  0.9999
  22. (0.00034) RY ( 3) N  2            s( 54.25%)p 0.84( 45.75%)
                                         0.0000  0.0112  0.7364 -0.0110  0.0095
                                        -0.0059  0.6762  0.0000  0.0000
  23. (0.00001) RY ( 4) N  2            s( 44.83%)p 1.23( 55.17%)
  24. (0.00163) RY ( 1) H  3            s(100.00%)
                                        -0.0030  1.0000
  25. (0.00079) RY ( 1) H  4            s(100.00%)
                                        -0.0008  1.0000
  26. (0.00079) RY ( 1) H  5            s(100.00%)
                                        -0.0008  1.0000
  27. (0.00117) RY ( 1) H  6            s(100.00%)
                                        -0.0020  1.0000
  28. (0.00117) RY ( 1) H  7            s(100.00%)
                                        -0.0020  1.0000


 NHO DIRECTIONALITY AND BOND BENDING (deviation from line of nuclear centers at
                                      the position of maximum hybrid amplitude)

         [Thresholds for printing:  angular deviation  >  1.0 degree]
                                    p- or d-character  > 25.0%
                                    orbital occupancy  >  0.10e

                        Line of Centers        Hybrid 1             Hybrid 2
                        ---------------  -------------------  ------------------
           NBO            Theta   Phi    Theta   Phi    Dev   Theta   Phi    Dev
 ===============================================================================
   3. LP ( 1) N  2          --     --     90.0  340.1   --      --     --    --
   4. BD ( 1) C  1- N  2   90.0  270.0     --     --    --     90.0   88.0   2.0
   6. BD ( 1) C  1- H  4   35.3   35.3    34.8   33.3   1.2     --     --    --
   7. BD ( 1) C  1- H  5  144.7   35.3   145.2   33.3   1.2     --     --    --
   8. BD ( 1) N  2- H  6  144.7  215.3   145.0  220.6   3.1     --     --    --
   9. BD ( 1) N  2- H  7   35.3  215.3    35.0  220.6   3.1     --     --    --


 SECOND ORDER PERTURBATION THEORY ANALYSIS OF FOCK MATRIX IN NBO BASIS

     Threshold for printing:   0.50 kcal/mol
                                                          E(2) E(NL)-E(L) F(L,NL)
      Donor (L) NBO              Acceptor (NL) NBO      kcal/mol   a.u.    a.u.
 ===============================================================================

 within unit  1
    1. CR ( 1) C  1            18. RY ( 3) C  1            0.51   13.00   0.073
    2. CR ( 1) N  2            22. RY ( 3) N  2            0.67   17.75   0.097
    3. LP ( 1) N  2            11. BD*( 1) C  1- H  3      8.19    1.11   0.085
    3. LP ( 1) N  2            12. BD*( 1) C  1- H  4      1.53    1.12   0.037
    3. LP ( 1) N  2            13. BD*( 1) C  1- H  5      1.53    1.12   0.037
    5. BD ( 1) C  1- H  3      20. RY ( 1) N  2            0.86    2.14   0.038
    6. BD ( 1) C  1- H  4      14. BD*( 1) N  2- H  6      2.77    1.34   0.054
    7. BD ( 1) C  1- H  5      15. BD*( 1) N  2- H  7      2.77    1.34   0.054
    8. BD ( 1) N  2- H  6      12. BD*( 1) C  1- H  4      2.88    1.46   0.058
    9. BD ( 1) N  2- H  7      13. BD*( 1) C  1- H  5      2.88    1.46   0.058


 NATURAL BOND ORBITALS (Summary):

                                                     Principal Delocalizations
           NBO                 Occupancy    Energy   (geminal,vicinal,remote)
 ===============================================================================
 Molecular unit  1  (CH5N)
 ------ Lewis --------------------------------------
    1. CR ( 1) C  1             1.99978   -11.18041  18(g)
    2. CR ( 1) N  2             1.99983   -15.43259  22(g)
    3. LP ( 1) N  2             1.97796    -0.42062  11(v),12(v),13(v)
    4. BD ( 1) C  1- N  2       1.99846    -0.80721
    5. BD ( 1) C  1- H  3       1.99858    -0.65805  20(v)
    6. BD ( 1) C  1- H  4       1.99406    -0.65474  14(v)
    7. BD ( 1) C  1- H  5       1.99406    -0.65474  15(v)
    8. BD ( 1) N  2- H  6       1.99440    -0.76603  12(v)
    9. BD ( 1) N  2- H  7       1.99440    -0.76603  13(v)
 ------ non-Lewis ----------------------------------
   10. BD*( 1) C  1- N  2       0.00009     0.57052
   11. BD*( 1) C  1- H  3       0.01567     0.68807
   12. BD*( 1) C  1- H  4       0.00763     0.69710
   13. BD*( 1) C  1- H  5       0.00763     0.69710
   14. BD*( 1) N  2- H  6       0.00424     0.68149
   15. BD*( 1) N  2- H  7       0.00424     0.68149
   16. RY ( 1) C  1             0.00094     0.97599
   17. RY ( 2) C  1             0.00034     1.02120
   18. RY ( 3) C  1             0.00020     1.82373
   19. RY ( 4) C  1             0.00001     1.10885
   20. RY ( 1) N  2             0.00114     1.48481
   21. RY ( 2) N  2             0.00044     1.59323
   22. RY ( 3) N  2             0.00034     2.31982
   23. RY ( 4) N  2             0.00001     2.00769
   24. RY ( 1) H  3             0.00163     0.94880
   25. RY ( 1) H  4             0.00079     0.94495
   26. RY ( 1) H  5             0.00079     0.94495
   27. RY ( 1) H  6             0.00117     0.99731
   28. RY ( 1) H  7             0.00117     0.99731
          -------------------------------
                 Total Lewis   17.95153  ( 99.7307%)
           Valence non-Lewis    0.03950  (  0.2195%)
           Rydberg non-Lewis    0.00896  (  0.0498%)
          -------------------------------
               Total unit  1   18.00000  (100.0000%)
              Charge unit  1    0.00000

 $CHOOSE
   LONE 2 1 END
   BOND S 1 2 S 1 3 S 1 4 S 1 5 S 2 6 S 2 7 END
 $END

 NBO analysis completed in 0.05 CPU seconds (1 wall second)
 Maximum scratch memory used by NBO was 240575 words (1.84 MB)
 Maximum scratch memory used by G09NBO was 9478 words (0.07 MB)

 Read Unf file /scr/ericg/opt/Gau-20941.EUF:
 Label Gaussian matrix elements                                         IVers= 1 NLab= 2 Version=ES64L-G09RevE.01
 Title Methylamine...rhf/3-21g optimization                            
 NAtoms=     7 NBasis=    28 NBsUse=    28 ICharg=     0 Multip=     1 NE=    18 Len12L=8 Len4L=8
 Label GAUSSIAN SCALARS                                                 NI= 1 NR= 1 NTot=       1 LenBuf=    2000 N=    1000       1       1       1       1
 Label NPA CHARGES                                                      NI= 0 NR= 1 NTot=       7 LenBuf=    4000 N=       7       0       0       0       0
 Recovered energy= -94.6794449579     dipole=      0.000000000000      0.000000000000      0.000000000000
 Calling FoFJK, ICntrl=      2127 FMM=F ISym2X=1 I1Cent= 0 IOpClX= 0 NMat=1 NMatS=1 NMatT=0.
 ***** Axes restored to original set *****
 -------------------------------------------------------------------
 Center     Atomic                   Forces (Hartrees/Bohr)
 Number     Number              X              Y              Z
 -------------------------------------------------------------------
      1        6           0.003173041   -0.000000000   -0.004037693
      2        7           0.002815012   -0.000000000    0.005373756
      3        1          -0.004003881    0.000000000   -0.011220483
      4        1           0.002306844    0.006297250    0.000595452
      5        1           0.002306844   -0.006297250    0.000595452
      6        1          -0.003298931   -0.002832644    0.004346758
      7        1          -0.003298931    0.002832644    0.004346758
 -------------------------------------------------------------------
 Cartesian Forces:  Max     0.011220483 RMS     0.004205258

 GradGradGradGradGradGradGradGradGradGradGradGradGradGradGradGradGradGrad
 Berny optimization.
 FormGI is forming the generalized inverse of G from B-inverse, IUseBI=4.
 Internal  Forces:  Max     0.018160858 RMS     0.006622560
 Search for a local minimum.
 Step number   1 out of a maximum of   31
 All quantities printed in internal units (Hartrees-Bohrs-Radians)
 Mixed Optimization -- RFO/linear search
 Second derivative matrix not updated -- first step.
 ITU=  0
     Eigenvalues ---    0.00766   0.04248   0.07537   0.07537   0.16000
     Eigenvalues ---    0.16000   0.16000   0.16000   0.16000   0.34813
     Eigenvalues ---    0.34813   0.34813   0.35740   0.45973   0.45973
 RFO step:  Lambda=-5.42155252D-03 EMin= 7.65814501D-03
 Linear search not attempted -- first point.
 Iteration  1 RMS(Cart)=  0.07278730 RMS(Int)=  0.00409955
 Iteration  2 RMS(Cart)=  0.00332377 RMS(Int)=  0.00170573
 Iteration  3 RMS(Cart)=  0.00000549 RMS(Int)=  0.00170572
 Iteration  4 RMS(Cart)=  0.00000002 RMS(Int)=  0.00170572
 ClnCor:  largest displacement from symmetrization is 5.42D-09 for atom     7.
 Variable       Old X    -DE/DX   Delta X   Delta X   Delta X     New X
                                 (Linear)    (Quad)   (Total)
    R1        2.77790   0.01407   0.00000   0.03877   0.03877   2.81667
    R2        2.05980  -0.00003   0.00000  -0.00010  -0.00010   2.05970
    R3        2.05980  -0.00643   0.00000  -0.01818  -0.01818   2.04162
    R4        2.05980  -0.00643   0.00000  -0.01818  -0.01818   2.04162
    R5        1.90862  -0.00242   0.00000  -0.00520  -0.00520   1.90342
    R6        1.90862  -0.00242   0.00000  -0.00520  -0.00520   1.90342
    A1        1.91063   0.01816   0.00000   0.12029   0.11915   2.02978
    A2        1.91063  -0.00126   0.00000  -0.01284  -0.01379   1.89684
    A3        1.91063  -0.00126   0.00000  -0.01284  -0.01379   1.89684
    A4        1.91063  -0.00638   0.00000  -0.02805  -0.02912   1.88151
    A5        1.91063  -0.00638   0.00000  -0.02805  -0.02912   1.88151
    A6        1.91063  -0.00289   0.00000  -0.03851  -0.03916   1.87147
    A7        1.91063   0.00811   0.00000   0.06621   0.06311   1.97374
    A8        1.91063   0.00811   0.00000   0.06621   0.06311   1.97374
    A9        1.91063  -0.00464   0.00000   0.00629   0.00115   1.91179
    D1        1.04720   0.00213   0.00000   0.04440   0.04566   1.09285
    D2       -1.04720  -0.00213   0.00000  -0.04440  -0.04566  -1.09285
    D3        3.14159   0.00467   0.00000   0.07585   0.07723  -3.06436
    D4        1.04720   0.00041   0.00000  -0.01295  -0.01408   1.03312
    D5       -1.04720  -0.00041   0.00000   0.01295   0.01408  -1.03312
    D6        3.14159  -0.00467   0.00000  -0.07585  -0.07723   3.06436
         Item               Value     Threshold  Converged?
 Maximum Force            0.018161     0.000450     NO 
 RMS     Force            0.006623     0.000300     NO 
 Maximum Displacement     0.241849     0.001800     NO 
 RMS     Displacement     0.071533     0.001200     NO 
 Predicted change in Energy=-2.888477D-03
 GradGradGradGradGradGradGradGradGradGradGradGradGradGradGradGradGradGrad

                          Input orientation:                          
 ---------------------------------------------------------------------
 Center     Atomic      Atomic             Coordinates (Angstroms)
 Number     Number       Type             X           Y           Z
 ---------------------------------------------------------------------
      1          6           0        0.032076   -0.000000   -0.013901
      2          7           0        0.023735    0.000000    1.476592
      3          1           0        1.011904   -0.000000   -0.491315
      4          1           0       -0.505438   -0.869744   -0.362962
      5          1           0       -0.505438    0.869744   -0.362962
      6          1           0        0.447700    0.822749    1.873941
      7          1           0        0.447700   -0.822749    1.873941
 ---------------------------------------------------------------------
                    Distance matrix (angstroms):
                    1          2          3          4          5
     1  C    0.000000
     2  N    1.490517   0.000000
     3  H    1.089948   2.202075   0.000000
     4  H    1.080379   2.102484   1.753641   0.000000
     5  H    1.080379   2.102484   1.753641   1.739489   0.000000
     6  H    2.100859   1.007248   2.567036   2.962556   2.431957
     7  H    2.100859   1.007248   2.567036   2.431957   2.962556
                    6          7
     6  H    0.000000
     7  H    1.645499   0.000000
 Stoichiometry    CH5N
 Framework group  CS[SG(CHN),X(H4)]
 Deg. of freedom     9
 Full point group                 CS      NOp   2
 Largest Abelian subgroup         CS      NOp   2
 Largest concise Abelian subgroup CS      NOp   2
                         Standard orientation:                         
 ---------------------------------------------------------------------
 Center     Atomic      Atomic             Coordinates (Angstroms)
 Number     Number       Type             X           Y           Z
 ---------------------------------------------------------------------
      1          6           0        0.041699    0.723867   -0.000000
      2          7           0        0.041699   -0.766650    0.000000
      3          1           0       -0.935442    1.206756   -0.000000
      4          1           0        0.581158    1.069914    0.869744
      5          1           0        0.581158    1.069914   -0.869744
      6          1           0       -0.384483   -1.161619   -0.822749
      7          1           0       -0.384483   -1.161619    0.822749
 ---------------------------------------------------------------------
 Rotational constants (GHZ):    106.6487407     22.0919616     21.1316162
 Standard basis: 3-21G (6D, 7F)
 There are    20 symmetry adapted cartesian basis functions of A'  symmetry.
 There are     8 symmetry adapted cartesian basis functions of A"  symmetry.
 There are    20 symmetry adapted basis functions of A'  symmetry.
 There are     8 symmetry adapted basis functions of A"  symmetry.
    28 basis functions,    45 primitive gaussians,    28 cartesian basis functions
     9 alpha electrons        9 beta electrons
       nuclear repulsion energy        41.7196364575 Hartrees.
 NAtoms=    7 NActive=    7 NUniq=    5 SFac= 1.96D+00 NAtFMM=   60 NAOKFM=F Big=F
 Integral buffers will be    131072 words long.
 Raffenetti 1 integral format.
 Two-electron integral symmetry is turned on.
 One-electron integrals computed using PRISM.
 NBasis=    28 RedAO= T EigKep=  3.46D-02  NBF=    20     8
 NBsUse=    28 1.00D-06 EigRej= -1.00D+00 NBFU=    20     8
 Initial guess from the checkpoint file:  "/scr/ericg/opt/Gau-20941.chk"
 B after Tr=     0.000000    0.000000    0.000000
         Rot=    0.999997   -0.000000    0.000000    0.002532 Ang=   0.29 deg.
 Initial guess orbital symmetries:
       Occupied  (A') (A') (A') (A') (A") (A') (A') (A") (A')
       Virtual   (A') (A') (A') (A') (A') (A') (A') (A') (A') (A')
                 (A') (A') (A') (A") (A") (A") (A") (A") (A")
 ExpMin= 1.83D-01 ExpMax= 2.43D+02 ExpMxC= 2.43D+02 IAcc=1 IRadAn=         1 AccDes= 0.00D+00
 Harris functional with IExCor=  205 and IRadAn=       1 diagonalized for initial guess.
 HarFok:  IExCor=  205 AccDes= 0.00D+00 IRadAn=         1 IDoV= 1 UseB2=F ITyADJ=14
 ICtDFT=  3500011 ScaDFX=  1.000000  1.000000  1.000000  1.000000
 FoFCou: FMM=F IPFlag=           0 FMFlag=      100000 FMFlg1=           0
         NFxFlg=           0 DoJE=T BraDBF=F KetDBF=T FulRan=T
         wScrn=  0.000000 ICntrl=     500 IOpCl=  0 I1Cent=   200000004 NGrid=           0
         NMat0=    1 NMatS0=      1 NMatT0=    0 NMatD0=    1 NMtDS0=    0 NMtDT0=    0
 Petite list used in FoFCou.
 Keep R1 ints in memory in symmetry-blocked form, NReq=913141.
 Requested convergence on RMS density matrix=1.00D-08 within 128 cycles.
 Requested convergence on MAX density matrix=1.00D-06.
 Requested convergence on             energy=1.00D-06.
 No special actions if energy rises.
 SCF Done:  E(RHF) =  -94.6812734317     A.U. after   11 cycles
            NFock= 11  Conv=0.21D-08     -V/T= 2.0028
 Calling FoFJK, ICntrl=      2127 FMM=F ISym2X=1 I1Cent= 0 IOpClX= 0 NMat=1 NMatS=1 NMatT=0.
 ***** Axes restored to original set *****
 -------------------------------------------------------------------
 Center     Atomic                   Forces (Hartrees/Bohr)
 Number     Number              X              Y              Z
 -------------------------------------------------------------------
      1        6          -0.001943626   -0.000000000    0.006422867
      2        7           0.005893308    0.000000000   -0.007269551
      3        1           0.001314338    0.000000000    0.003913549
      4        1          -0.000736741   -0.001616608    0.000580045
      5        1          -0.000736741    0.001616608    0.000580045
      6        1          -0.001895270   -0.000324526   -0.002113478
      7        1          -0.001895270    0.000324526   -0.002113478
 -------------------------------------------------------------------
 Cartesian Forces:  Max     0.007269551 RMS     0.002869921

 GradGradGradGradGradGradGradGradGradGradGradGradGradGradGradGradGradGrad
 Berny optimization.
 Using GEDIIS/GDIIS optimizer.
 FormGI is forming the generalized inverse of G from B-inverse, IUseBI=4.
 Internal  Forces:  Max     0.011508094 RMS     0.003111382
 Search for a local minimum.
 Step number   2 out of a maximum of   31
 All quantities printed in internal units (Hartrees-Bohrs-Radians)
 Mixed Optimization -- RFO/linear search
 Update second derivatives using D2CorX and points    1    2
 DE= -1.83D-03 DEPred=-2.89D-03 R= 6.33D-01
 TightC=F SS=  1.41D+00  RLast= 2.11D-01 DXNew= 5.0454D-01 6.3276D-01
 Trust test= 6.33D-01 RLast= 2.11D-01 DXMaxT set to 5.05D-01
 ITU=  1  0
 Use linear search instead of GDIIS.
     Eigenvalues ---    0.00766   0.03354   0.06676   0.07784   0.15911
     Eigenvalues ---    0.16000   0.16000   0.16000   0.18647   0.34607
     Eigenvalues ---    0.34813   0.34817   0.42763   0.45973   0.46133
 RFO step:  Lambda=-2.16215713D-04 EMin= 7.65814501D-03
 Quartic linear search produced a step of -0.23746.
 Iteration  1 RMS(Cart)=  0.01468975 RMS(Int)=  0.00038836
 Iteration  2 RMS(Cart)=  0.00009034 RMS(Int)=  0.00037424
 Iteration  3 RMS(Cart)=  0.00000001 RMS(Int)=  0.00037424
 ClnCor:  largest displacement from symmetrization is 3.42D-13 for atom     7.
 Variable       Old X    -DE/DX   Delta X   Delta X   Delta X     New X
                                 (Linear)    (Quad)   (Total)
    R1        2.81667  -0.01151  -0.00921  -0.01452  -0.02373   2.79294
    R2        2.05970  -0.00053   0.00002  -0.00120  -0.00117   2.05853
    R3        2.04162   0.00148   0.00432  -0.00148   0.00284   2.04446
    R4        2.04162   0.00148   0.00432  -0.00148   0.00284   2.04446
    R5        1.90342  -0.00190   0.00123  -0.00451  -0.00328   1.90014
    R6        1.90342  -0.00190   0.00123  -0.00451  -0.00328   1.90014
    A1        2.02978  -0.00566  -0.02829   0.00065  -0.02747   2.00231
    A2        1.89684  -0.00014   0.00327  -0.00306   0.00038   1.89723
    A3        1.89684  -0.00014   0.00327  -0.00306   0.00038   1.89723
    A4        1.88151   0.00260   0.00692   0.00228   0.00936   1.89087
    A5        1.88151   0.00260   0.00692   0.00228   0.00936   1.89087
    A6        1.87147   0.00126   0.00930   0.00106   0.01051   1.88198
    A7        1.97374  -0.00145  -0.01499   0.01311  -0.00117   1.97257
    A8        1.97374  -0.00145  -0.01499   0.01311  -0.00117   1.97257
    A9        1.91179   0.00226  -0.00027   0.01618   0.01706   1.92884
    D1        1.09285   0.00035  -0.01084   0.02182   0.01070   1.10356
    D2       -1.09285  -0.00035   0.01084  -0.02182  -0.01070  -1.10356
    D3       -3.06436  -0.00032  -0.01834   0.02286   0.00424  -3.06012
    D4        1.03312  -0.00102   0.00334  -0.02078  -0.01717   1.01595
    D5       -1.03312   0.00102  -0.00334   0.02078   0.01717  -1.01595
    D6        3.06436   0.00032   0.01834  -0.02286  -0.00424   3.06012
         Item               Value     Threshold  Converged?
 Maximum Force            0.011508     0.000450     NO 
 RMS     Force            0.003111     0.000300     NO 
 Maximum Displacement     0.044273     0.001800     NO 
 RMS     Displacement     0.014723     0.001200     NO 
 Predicted change in Energy=-2.900137D-04
 GradGradGradGradGradGradGradGradGradGradGradGradGradGradGradGradGradGrad

                          Input orientation:                          
 ---------------------------------------------------------------------
 Center     Atomic      Atomic             Coordinates (Angstroms)
 Number     Number       Type             X           Y           Z
 ---------------------------------------------------------------------
      1          6           0        0.027504   -0.000000   -0.010925
      2          7           0        0.029522    0.000000    1.467033
      3          1           0        1.016352   -0.000000   -0.467886
      4          1           0       -0.507468   -0.874312   -0.357115
      5          1           0       -0.507468    0.874312   -0.357115
      6          1           0        0.446898    0.826249    1.859671
      7          1           0        0.446898   -0.826249    1.859671
 ---------------------------------------------------------------------
                    Distance matrix (angstroms):
                    1          2          3          4          5
     1  C    0.000000
     2  N    1.477959   0.000000
     3  H    1.089328   2.172037   0.000000
     4  H    1.081880   2.092916   1.760318   0.000000
     5  H    1.081880   2.092916   1.760318   1.748624   0.000000
     6  H    2.087513   1.005512   2.534658   2.952434   2.413974
     7  H    2.087513   1.005512   2.534658   2.413974   2.952434
                    6          7
     6  H    0.000000
     7  H    1.652498   0.000000
 Stoichiometry    CH5N
 Framework group  CS[SG(CHN),X(H4)]
 Deg. of freedom     9
 Full point group                 CS      NOp   2
 Largest Abelian subgroup         CS      NOp   2
 Largest concise Abelian subgroup CS      NOp   2
                         Standard orientation:                         
 ---------------------------------------------------------------------
 Center     Atomic      Atomic             Coordinates (Angstroms)
 Number     Number       Type             X           Y           Z
 ---------------------------------------------------------------------
      1          6           0        0.041897    0.718811   -0.000000
      2          7           0        0.041897   -0.759148    0.000000
      3          1           0       -0.947574    1.174422   -0.000000
      4          1           0        0.576396    1.065732    0.874312
      5          1           0        0.576396    1.065732   -0.874312
      6          1           0       -0.374942   -1.152356   -0.826249
      7          1           0       -0.374942   -1.152356    0.826249
 ---------------------------------------------------------------------
 Rotational constants (GHZ):    106.0425846     22.4726710     21.4538883
 Standard basis: 3-21G (6D, 7F)
 There are    20 symmetry adapted cartesian basis functions of A'  symmetry.
 There are     8 symmetry adapted cartesian basis functions of A"  symmetry.
 There are    20 symmetry adapted basis functions of A'  symmetry.
 There are     8 symmetry adapted basis functions of A"  symmetry.
    28 basis functions,    45 primitive gaussians,    28 cartesian basis functions
     9 alpha electrons        9 beta electrons
       nuclear repulsion energy        41.9157272566 Hartrees.
 NAtoms=    7 NActive=    7 NUniq=    5 SFac= 1.96D+00 NAtFMM=   60 NAOKFM=F Big=F
 Integral buffers will be    131072 words long.
 Raffenetti 1 integral format.
 Two-electron integral symmetry is turned on.
 One-electron integrals computed using PRISM.
 NBasis=    28 RedAO= T EigKep=  3.42D-02  NBF=    20     8
 NBsUse=    28 1.00D-06 EigRej= -1.00D+00 NBFU=    20     8
 Initial guess from the checkpoint file:  "/scr/ericg/opt/Gau-20941.chk"
 B after Tr=    -0.000000    0.000000    0.000000
         Rot=    0.999998   -0.000000    0.000000   -0.002150 Ang=  -0.25 deg.
 Initial guess orbital symmetries:
       Occupied  (A') (A') (A') (A') (A") (A') (A') (A") (A')
       Virtual   (A') (A') (A') (A') (A') (A') (A') (A') (A') (A')
                 (A') (A') (A') (A") (A") (A") (A") (A") (A")
 ExpMin= 1.83D-01 ExpMax= 2.43D+02 ExpMxC= 2.43D+02 IAcc=1 IRadAn=         1 AccDes= 0.00D+00
 Harris functional with IExCor=  205 and IRadAn=       1 diagonalized for initial guess.
 HarFok:  IExCor=  205 AccDes= 0.00D+00 IRadAn=         1 IDoV= 1 UseB2=F ITyADJ=14
 ICtDFT=  3500011 ScaDFX=  1.000000  1.000000  1.000000  1.000000
 FoFCou: FMM=F IPFlag=           0 FMFlag=      100000 FMFlg1=           0
         NFxFlg=           0 DoJE=T BraDBF=F KetDBF=T FulRan=T
         wScrn=  0.000000 ICntrl=     500 IOpCl=  0 I1Cent=   200000004 NGrid=           0
         NMat0=    1 NMatS0=      1 NMatT0=    0 NMatD0=    1 NMtDS0=    0 NMtDT0=    0
 Petite list used in FoFCou.
 Keep R1 ints in memory in symmetry-blocked form, NReq=913141.
 Requested convergence on RMS density matrix=1.00D-08 within 128 cycles.
 Requested convergence on MAX density matrix=1.00D-06.
 Requested convergence on             energy=1.00D-06.
 No special actions if energy rises.
 SCF Done:  E(RHF) =  -94.6816146443     A.U. after   10 cycles
            NFock= 10  Conv=0.23D-08     -V/T= 2.0024
 Calling FoFJK, ICntrl=      2127 FMM=F ISym2X=1 I1Cent= 0 IOpClX= 0 NMat=1 NMatS=1 NMatT=0.
 ***** Axes restored to original set *****
 -------------------------------------------------------------------
 Center     Atomic                   Forces (Hartrees/Bohr)
 Number     Number              X              Y              Z
 -------------------------------------------------------------------
      1        6          -0.000504044   -0.000000000    0.003217295
      2        7           0.002440310    0.000000000   -0.001834810
      3        1           0.000132530    0.000000000   -0.000046798
      4        1          -0.000106179   -0.000071984   -0.000396673
      5        1          -0.000106179    0.000071984   -0.000396673
      6        1          -0.000928219   -0.000624483   -0.000271170
      7        1          -0.000928219    0.000624483   -0.000271170
 -------------------------------------------------------------------
 Cartesian Forces:  Max     0.003217295 RMS     0.001045267

 GradGradGradGradGradGradGradGradGradGradGradGradGradGradGradGradGradGrad
 Berny optimization.
 Using GEDIIS/GDIIS optimizer.
 FormGI is forming the generalized inverse of G from B-inverse, IUseBI=4.
 Internal  Forces:  Max     0.002376351 RMS     0.000658882
 Search for a local minimum.
 Step number   3 out of a maximum of   31
 All quantities printed in internal units (Hartrees-Bohrs-Radians)
 Mixed Optimization -- En-DIIS/RFO-DIIS
 Update second derivatives using D2CorX and points    1    2    3
 DE= -3.41D-04 DEPred=-2.90D-04 R= 1.18D+00
 TightC=F SS=  1.41D+00  RLast= 5.28D-02 DXNew= 8.4853D-01 1.5848D-01
 Trust test= 1.18D+00 RLast= 5.28D-02 DXMaxT set to 5.05D-01
 ITU=  1  1  0
 Use linear search instead of GDIIS.
     Eigenvalues ---    0.00766   0.02972   0.06893   0.07735   0.15795
     Eigenvalues ---    0.16000   0.16000   0.16028   0.19729   0.34343
     Eigenvalues ---    0.34788   0.34813   0.36581   0.45209   0.45973
 RFO step:  Lambda=-4.37739521D-05 EMin= 7.65814501D-03
 Quartic linear search produced a step of  0.15939.
 Iteration  1 RMS(Cart)=  0.00376050 RMS(Int)=  0.00005987
 Iteration  2 RMS(Cart)=  0.00004267 RMS(Int)=  0.00004595
 Iteration  3 RMS(Cart)=  0.00000000 RMS(Int)=  0.00004595
 ClnCor:  largest displacement from symmetrization is 6.89D-14 for atom     7.
 Variable       Old X    -DE/DX   Delta X   Delta X   Delta X     New X
                                 (Linear)    (Quad)   (Total)
    R1        2.79294  -0.00238  -0.00378  -0.00518  -0.00896   2.78398
    R2        2.05853   0.00014  -0.00019   0.00060   0.00042   2.05895
    R3        2.04446   0.00024   0.00045   0.00026   0.00072   2.04517
    R4        2.04446   0.00024   0.00045   0.00026   0.00072   2.04517
    R5        1.90014  -0.00100  -0.00052  -0.00244  -0.00296   1.89718
    R6        1.90014  -0.00100  -0.00052  -0.00244  -0.00296   1.89718
    A1        2.00231  -0.00020  -0.00438   0.00267  -0.00172   2.00059
    A2        1.89723   0.00043   0.00006   0.00318   0.00323   1.90045
    A3        1.89723   0.00043   0.00006   0.00318   0.00323   1.90045
    A4        1.89087  -0.00017   0.00149  -0.00285  -0.00137   1.88951
    A5        1.89087  -0.00017   0.00149  -0.00285  -0.00137   1.88951
    A6        1.88198  -0.00035   0.00167  -0.00379  -0.00212   1.87985
    A7        1.97257   0.00029  -0.00019   0.00729   0.00701   1.97958
    A8        1.97257   0.00029  -0.00019   0.00729   0.00701   1.97958
    A9        1.92884   0.00008   0.00272   0.00550   0.00808   1.93692
    D1        1.10356   0.00030   0.00171   0.00992   0.01166   1.11522
    D2       -1.10356  -0.00030  -0.00171  -0.00992  -0.01166  -1.11522
    D3       -3.06012   0.00027   0.00068   0.01042   0.01113  -3.04898
    D4        1.01595  -0.00033  -0.00274  -0.00942  -0.01219   1.00376
    D5       -1.01595   0.00033   0.00274   0.00942   0.01219  -1.00376
    D6        3.06012  -0.00027  -0.00068  -0.01042  -0.01113   3.04898
         Item               Value     Threshold  Converged?
 Maximum Force            0.002376     0.000450     NO 
 RMS     Force            0.000659     0.000300     NO 
 Maximum Displacement     0.012794     0.001800     NO 
 RMS     Displacement     0.003758     0.001200     NO 
 Predicted change in Energy=-2.965605D-05
 GradGradGradGradGradGradGradGradGradGradGradGradGradGradGradGradGradGrad

                          Input orientation:                          
 ---------------------------------------------------------------------
 Center     Atomic      Atomic             Coordinates (Angstroms)
 Number     Number       Type             X           Y           Z
 ---------------------------------------------------------------------
      1          6           0        0.027896   -0.000000   -0.009358
      2          7           0        0.036292    0.000000    1.463836
      3          1           0        1.015748   -0.000000   -0.468994
      4          1           0       -0.507730   -0.873941   -0.356659
      5          1           0       -0.507730    0.873941   -0.356659
      6          1           0        0.443880    0.827267    1.860584
      7          1           0        0.443880   -0.827267    1.860584
 ---------------------------------------------------------------------
                    Distance matrix (angstroms):
                    1          2          3          4          5
     1  C    0.000000
     2  N    1.473218   0.000000
     3  H    1.089549   2.166833   0.000000
     4  H    1.082259   2.091395   1.759936   0.000000
     5  H    1.082259   2.091395   1.759936   1.747882   0.000000
     6  H    2.086648   1.003947   2.537388   2.952260   2.413278
     7  H    2.086648   1.003947   2.537388   2.413278   2.952260
                    6          7
     6  H    0.000000
     7  H    1.654535   0.000000
 Stoichiometry    CH5N
 Framework group  CS[SG(CHN),X(H4)]
 Deg. of freedom     9
 Full point group                 CS      NOp   2
 Largest Abelian subgroup         CS      NOp   2
 Largest concise Abelian subgroup CS      NOp   2
                         Standard orientation:                         
 ---------------------------------------------------------------------
 Center     Atomic      Atomic             Coordinates (Angstroms)
 Number     Number       Type             X           Y           Z
 ---------------------------------------------------------------------
      1          6           0        0.040768    0.716800   -0.000000
      2          7           0        0.040768   -0.756418    0.000000
      3          1           0       -0.949688    1.170798    0.000000
      4          1           0        0.574405    1.067148    0.873941
      5          1           0        0.574405    1.067148   -0.873941
      6          1           0       -0.364552   -1.155483   -0.827267
      7          1           0       -0.364552   -1.155483    0.827267
 ---------------------------------------------------------------------
 Rotational constants (GHZ):    106.3547541     22.5710868     21.5268992
 Standard basis: 3-21G (6D, 7F)
 There are    20 symmetry adapted cartesian basis functions of A'  symmetry.
 There are     8 symmetry adapted cartesian basis functions of A"  symmetry.
 There are    20 symmetry adapted basis functions of A'  symmetry.
 There are     8 symmetry adapted basis functions of A"  symmetry.
    28 basis functions,    45 primitive gaussians,    28 cartesian basis functions
     9 alpha electrons        9 beta electrons
       nuclear repulsion energy        41.9804580561 Hartrees.
 NAtoms=    7 NActive=    7 NUniq=    5 SFac= 1.96D+00 NAtFMM=   60 NAOKFM=F Big=F
 Integral buffers will be    131072 words long.
 Raffenetti 1 integral format.
 Two-electron integral symmetry is turned on.
 One-electron integrals computed using PRISM.
 NBasis=    28 RedAO= T EigKep=  3.41D-02  NBF=    20     8
 NBsUse=    28 1.00D-06 EigRej= -1.00D+00 NBFU=    20     8
 Initial guess from the checkpoint file:  "/scr/ericg/opt/Gau-20941.chk"
 B after Tr=     0.000000   -0.000000    0.000000
         Rot=    0.999999    0.000000    0.000000   -0.001219 Ang=  -0.14 deg.
 Initial guess orbital symmetries:
       Occupied  (A') (A') (A') (A') (A") (A') (A') (A") (A')
       Virtual   (A') (A') (A') (A') (A') (A') (A') (A') (A') (A')
                 (A') (A') (A') (A") (A") (A") (A") (A") (A")
 Keep R1 ints in memory in symmetry-blocked form, NReq=913141.
 Requested convergence on RMS density matrix=1.00D-08 within 128 cycles.
 Requested convergence on MAX density matrix=1.00D-06.
 Requested convergence on             energy=1.00D-06.
 No special actions if energy rises.
 SCF Done:  E(RHF) =  -94.6816511199     A.U. after    9 cycles
            NFock=  9  Conv=0.38D-08     -V/T= 2.0023
 Calling FoFJK, ICntrl=      2127 FMM=F ISym2X=1 I1Cent= 0 IOpClX= 0 NMat=1 NMatS=1 NMatT=0.
 ***** Axes restored to original set *****
 -------------------------------------------------------------------
 Center     Atomic                   Forces (Hartrees/Bohr)
 Number     Number              X              Y              Z
 -------------------------------------------------------------------
      1        6          -0.000044380   -0.000000000    0.001105819
      2        7           0.000487210   -0.000000000   -0.000489949
      3        1           0.000065913    0.000000000   -0.000376948
      4        1          -0.000017060   -0.000024374   -0.000151142
      5        1          -0.000017060    0.000024374   -0.000151142
      6        1          -0.000237312   -0.000099169    0.000031681
      7        1          -0.000237312    0.000099169    0.000031681
 -------------------------------------------------------------------
 Cartesian Forces:  Max     0.001105819 RMS     0.000310946

 GradGradGradGradGradGradGradGradGradGradGradGradGradGradGradGradGradGrad
 Berny optimization.
 Using GEDIIS/GDIIS optimizer.
 FormGI is forming the generalized inverse of G from B-inverse, IUseBI=4.
 Internal  Forces:  Max     0.000426508 RMS     0.000186673
 Search for a local minimum.
 Step number   4 out of a maximum of   31
 All quantities printed in internal units (Hartrees-Bohrs-Radians)
 Mixed Optimization -- En-DIIS/RFO-DIIS
 Swapping is turned off.
 Update second derivatives using D2CorX and points    1    2    3    4
 DE= -3.65D-05 DEPred=-2.97D-05 R= 1.23D+00
 TightC=F SS=  1.41D+00  RLast= 3.33D-02 DXNew= 8.4853D-01 1.0003D-01
 Trust test= 1.23D+00 RLast= 3.33D-02 DXMaxT set to 5.05D-01
 ITU=  1  1  1  0
     Eigenvalues ---    0.00766   0.02327   0.06892   0.07787   0.16000
     Eigenvalues ---    0.16000   0.16057   0.16405   0.18005   0.33917
     Eigenvalues ---    0.34813   0.34833   0.37523   0.44944   0.45973
 En-DIIS/RFO-DIIS IScMMF=        0 using points:     4    3
 RFO step:  Lambda=-2.25009393D-06.
 DidBck=F Rises=F RFO-DIIS coefs:    1.36047   -0.36047
 Iteration  1 RMS(Cart)=  0.00255233 RMS(Int)=  0.00002961
 Iteration  2 RMS(Cart)=  0.00001153 RMS(Int)=  0.00002742
 Iteration  3 RMS(Cart)=  0.00000000 RMS(Int)=  0.00002742
 ClnCor:  largest displacement from symmetrization is 2.58D-13 for atom     7.
 Variable       Old X    -DE/DX   Delta X   Delta X   Delta X     New X
                                 (Linear)    (Quad)   (Total)
    R1        2.78398  -0.00043  -0.00323  -0.00018  -0.00341   2.78056
    R2        2.05895   0.00022   0.00015   0.00067   0.00082   2.05977
    R3        2.04517   0.00008   0.00026   0.00015   0.00041   2.04558
    R4        2.04517   0.00008   0.00026   0.00015   0.00041   2.04558
    R5        1.89718  -0.00017  -0.00107   0.00011  -0.00096   1.89623
    R6        1.89718  -0.00017  -0.00107   0.00011  -0.00096   1.89623
    A1        2.00059   0.00040  -0.00062   0.00322   0.00260   2.00319
    A2        1.90045   0.00008   0.00116  -0.00035   0.00081   1.90127
    A3        1.90045   0.00008   0.00116  -0.00035   0.00081   1.90127
    A4        1.88951  -0.00023  -0.00049  -0.00107  -0.00156   1.88795
    A5        1.88951  -0.00023  -0.00049  -0.00107  -0.00156   1.88795
    A6        1.87985  -0.00013  -0.00077  -0.00060  -0.00137   1.87849
    A7        1.97958   0.00017   0.00253   0.00119   0.00366   1.98324
    A8        1.97958   0.00017   0.00253   0.00119   0.00366   1.98324
    A9        1.93692  -0.00005   0.00291   0.00073   0.00356   1.94048
    D1        1.11522   0.00011   0.00420   0.00156   0.00579   1.12101
    D2       -1.11522  -0.00011  -0.00420  -0.00156  -0.00579  -1.12101
    D3       -3.04898   0.00015   0.00401   0.00212   0.00615  -3.04284
    D4        1.00376  -0.00008  -0.00439  -0.00101  -0.00543   0.99834
    D5       -1.00376   0.00008   0.00439   0.00101   0.00543  -0.99834
    D6        3.04898  -0.00015  -0.00401  -0.00212  -0.00615   3.04284
         Item               Value     Threshold  Converged?
 Maximum Force            0.000427     0.000450     YES
 RMS     Force            0.000187     0.000300     YES
 Maximum Displacement     0.006609     0.001800     NO 
 RMS     Displacement     0.002550     0.001200     NO 
 Predicted change in Energy=-4.517133D-06
 GradGradGradGradGradGradGradGradGradGradGradGradGradGradGradGradGradGrad

                          Input orientation:                          
 ---------------------------------------------------------------------
 Center     Atomic      Atomic             Coordinates (Angstroms)
 Number     Number       Type             X           Y           Z
 ---------------------------------------------------------------------
      1          6           0        0.028873   -0.000000   -0.008695
      2          7           0        0.039358   -0.000000    1.462679
      3          1           0        1.015259    0.000000   -0.472492
      4          1           0       -0.507526   -0.873677   -0.356132
      5          1           0       -0.507526    0.873677   -0.356132
      6          1           0        0.441900    0.827860    1.862052
      7          1           0        0.441900   -0.827860    1.862052
 ---------------------------------------------------------------------
                    Distance matrix (angstroms):
                    1          2          3          4          5
     1  C    0.000000
     2  N    1.471411   0.000000
     3  H    1.089983   2.167318   0.000000
     4  H    1.082474   2.090567   1.759467   0.000000
     5  H    1.082474   2.090567   1.759467   1.747355   0.000000
     6  H    2.087016   1.003439   2.542476   2.952453   2.413266
     7  H    2.087016   1.003439   2.542476   2.413266   2.952453
                    6          7
     6  H    0.000000
     7  H    1.655719   0.000000
 Stoichiometry    CH5N
 Framework group  CS[SG(CHN),X(H4)]
 Deg. of freedom     9
 Full point group                 CS      NOp   2
 Largest Abelian subgroup         CS      NOp   2
 Largest concise Abelian subgroup CS      NOp   2
                         Standard orientation:                         
 ---------------------------------------------------------------------
 Center     Atomic      Atomic             Coordinates (Angstroms)
 Number     Number       Type             X           Y           Z
 ---------------------------------------------------------------------
      1          6           0        0.040068    0.715995   -0.000000
      2          7           0        0.040068   -0.755417    0.000000
      3          1           0       -0.949598    1.172751   -0.000000
      4          1           0        0.573978    1.067246    0.873677
      5          1           0        0.573978    1.067246   -0.873677
      6          1           0       -0.359619   -1.157648   -0.827860
      7          1           0       -0.359619   -1.157648    0.827860
 ---------------------------------------------------------------------
 Rotational constants (GHZ):    106.5213836     22.6006771     21.5450579
 Standard basis: 3-21G (6D, 7F)
 There are    20 symmetry adapted cartesian basis functions of A'  symmetry.
 There are     8 symmetry adapted cartesian basis functions of A"  symmetry.
 There are    20 symmetry adapted basis functions of A'  symmetry.
 There are     8 symmetry adapted basis functions of A"  symmetry.
    28 basis functions,    45 primitive gaussians,    28 cartesian basis functions
     9 alpha electrons        9 beta electrons
       nuclear repulsion energy        42.0000386468 Hartrees.
 NAtoms=    7 NActive=    7 NUniq=    5 SFac= 1.96D+00 NAtFMM=   60 NAOKFM=F Big=F
 Integral buffers will be    131072 words long.
 Raffenetti 1 integral format.
 Two-electron integral symmetry is turned on.
 One-electron integrals computed using PRISM.
 NBasis=    28 RedAO= T EigKep=  3.40D-02  NBF=    20     8
 NBsUse=    28 1.00D-06 EigRej= -1.00D+00 NBFU=    20     8
 Initial guess from the checkpoint file:  "/scr/ericg/opt/Gau-20941.chk"
 B after Tr=     0.000000    0.000000    0.000000
         Rot=    1.000000    0.000000   -0.000000   -0.000375 Ang=  -0.04 deg.
 Initial guess orbital symmetries:
       Occupied  (A') (A') (A') (A') (A") (A') (A') (A") (A')
       Virtual   (A') (A') (A') (A') (A') (A') (A') (A') (A') (A')
                 (A') (A') (A') (A") (A") (A") (A") (A") (A")
 Keep R1 ints in memory in symmetry-blocked form, NReq=913141.
 Requested convergence on RMS density matrix=1.00D-08 within 128 cycles.
 Requested convergence on MAX density matrix=1.00D-06.
 Requested convergence on             energy=1.00D-06.
 No special actions if energy rises.
 SCF Done:  E(RHF) =  -94.6816558338     A.U. after    9 cycles
            NFock=  9  Conv=0.90D-09     -V/T= 2.0023
 Calling FoFJK, ICntrl=      2127 FMM=F ISym2X=1 I1Cent= 0 IOpClX= 0 NMat=1 NMatS=1 NMatT=0.
 ***** Axes restored to original set *****
 -------------------------------------------------------------------
 Center     Atomic                   Forces (Hartrees/Bohr)
 Number     Number              X              Y              Z
 -------------------------------------------------------------------
      1        6          -0.000072377   -0.000000000    0.000028309
      2        7           0.000018965    0.000000000   -0.000027435
      3        1           0.000011837    0.000000000   -0.000032041
      4        1           0.000011022    0.000007424   -0.000037031
      5        1           0.000011022   -0.000007424   -0.000037031
      6        1           0.000009767    0.000002843    0.000052615
      7        1           0.000009767   -0.000002843    0.000052615
 -------------------------------------------------------------------
 Cartesian Forces:  Max     0.000072377 RMS     0.000028584

 GradGradGradGradGradGradGradGradGradGradGradGradGradGradGradGradGradGrad
 Berny optimization.
 Using GEDIIS/GDIIS optimizer.
 FormGI is forming the generalized inverse of G from B-inverse, IUseBI=4.
 Internal  Forces:  Max     0.000078068 RMS     0.000034225
 Search for a local minimum.
 Step number   5 out of a maximum of   31
 All quantities printed in internal units (Hartrees-Bohrs-Radians)
 Mixed Optimization -- En-DIIS/RFO-DIIS
 Swapping is turned off.
 Update second derivatives using D2CorX and points    1    2    3    4    5
 DE= -4.71D-06 DEPred=-4.52D-06 R= 1.04D+00
 TightC=F SS=  1.41D+00  RLast= 1.64D-02 DXNew= 8.4853D-01 4.9318D-02
 Trust test= 1.04D+00 RLast= 1.64D-02 DXMaxT set to 5.05D-01
 ITU=  1  1  1  1  0
     Eigenvalues ---    0.00766   0.02204   0.06869   0.07816   0.15838
     Eigenvalues ---    0.16000   0.16000   0.16354   0.17568   0.34319
     Eigenvalues ---    0.34813   0.35032   0.38071   0.45171   0.45973
 En-DIIS/RFO-DIIS IScMMF=        0 using points:     5    4    3
 RFO step:  Lambda=-5.21125897D-08.
 DidBck=F Rises=F RFO-DIIS coefs:    1.05950   -0.06439    0.00489
 Iteration  1 RMS(Cart)=  0.00029325 RMS(Int)=  0.00000036
 Iteration  2 RMS(Cart)=  0.00000007 RMS(Int)=  0.00000035
 ClnCor:  largest displacement from symmetrization is 1.49D-13 for atom     5.
 Variable       Old X    -DE/DX   Delta X   Delta X   Delta X     New X
                                 (Linear)    (Quad)   (Total)
    R1        2.78056   0.00008  -0.00016   0.00020   0.00004   2.78061
    R2        2.05977   0.00002   0.00005   0.00004   0.00008   2.05985
    R3        2.04558   0.00000   0.00002   0.00000   0.00002   2.04560
    R4        2.04558   0.00000   0.00002   0.00000   0.00002   2.04560
    R5        1.89623   0.00003  -0.00004   0.00007   0.00003   1.89625
    R6        1.89623   0.00003  -0.00004   0.00007   0.00003   1.89625
    A1        2.00319   0.00001   0.00016  -0.00020  -0.00003   2.00316
    A2        1.90127   0.00004   0.00003   0.00027   0.00031   1.90157
    A3        1.90127   0.00004   0.00003   0.00027   0.00031   1.90157
    A4        1.88795  -0.00004  -0.00009  -0.00015  -0.00023   1.88771
    A5        1.88795  -0.00004  -0.00009  -0.00015  -0.00023   1.88771
    A6        1.87849  -0.00003  -0.00007  -0.00005  -0.00013   1.87836
    A7        1.98324   0.00005   0.00018   0.00030   0.00048   1.98373
    A8        1.98324   0.00005   0.00018   0.00030   0.00048   1.98373
    A9        1.94048  -0.00005   0.00017  -0.00022  -0.00005   1.94043
    D1        1.12101   0.00001   0.00029   0.00011   0.00040   1.12141
    D2       -1.12101  -0.00001  -0.00029  -0.00011  -0.00040  -1.12141
    D3       -3.04284   0.00000   0.00031  -0.00001   0.00030  -3.04253
    D4        0.99834  -0.00001  -0.00026  -0.00023  -0.00050   0.99784
    D5       -0.99834   0.00001   0.00026   0.00023   0.00050  -0.99784
    D6        3.04284  -0.00000  -0.00031   0.00001  -0.00030   3.04253
         Item               Value     Threshold  Converged?
 Maximum Force            0.000078     0.000450     YES
 RMS     Force            0.000034     0.000300     YES
 Maximum Displacement     0.000673     0.001800     YES
 RMS     Displacement     0.000293     0.001200     YES
 Predicted change in Energy=-6.444419D-08
 Optimization completed.
    -- Stationary point found.
                           ----------------------------
                           !   Optimized Parameters   !
                           ! (Angstroms and Degrees)  !
 --------------------------                            --------------------------
 ! Name  Definition              Value          Derivative Info.                !
 --------------------------------------------------------------------------------
 ! R1    R(1,2)                  1.4714         -DE/DX =    0.0001              !
 ! R2    R(1,3)                  1.09           -DE/DX =    0.0                 !
 ! R3    R(1,4)                  1.0825         -DE/DX =    0.0                 !
 ! R4    R(1,5)                  1.0825         -DE/DX =    0.0                 !
 ! R5    R(2,6)                  1.0034         -DE/DX =    0.0                 !
 ! R6    R(2,7)                  1.0034         -DE/DX =    0.0                 !
 ! A1    A(2,1,3)              114.7746         -DE/DX =    0.0                 !
 ! A2    A(2,1,4)              108.9346         -DE/DX =    0.0                 !
 ! A3    A(2,1,5)              108.9346         -DE/DX =    0.0                 !
 ! A4    A(3,1,4)              108.1713         -DE/DX =    0.0                 !
 ! A5    A(3,1,5)              108.1713         -DE/DX =    0.0                 !
 ! A6    A(4,1,5)              107.6294         -DE/DX =    0.0                 !
 ! A7    A(1,2,6)              113.6315         -DE/DX =    0.0001              !
 ! A8    A(1,2,7)              113.6315         -DE/DX =    0.0001              !
 ! A9    A(6,2,7)              111.1815         -DE/DX =   -0.0001              !
 ! D1    D(3,1,2,6)             64.229          -DE/DX =    0.0                 !
 ! D2    D(3,1,2,7)            -64.229          -DE/DX =    0.0                 !
 ! D3    D(4,1,2,6)           -174.3416         -DE/DX =    0.0                 !
 ! D4    D(4,1,2,7)             57.2004         -DE/DX =    0.0                 !
 ! D5    D(5,1,2,6)            -57.2004         -DE/DX =    0.0                 !
 ! D6    D(5,1,2,7)            174.3416         -DE/DX =    0.0                 !
 --------------------------------------------------------------------------------
 GradGradGradGradGradGradGradGradGradGradGradGradGradGradGradGradGradGrad

                          Input orientation:                          
 ---------------------------------------------------------------------
 Center     Atomic      Atomic             Coordinates (Angstroms)
 Number     Number       Type             X           Y           Z
 ---------------------------------------------------------------------
      1          6           0        0.028873   -0.000000   -0.008695
      2          7           0        0.039358   -0.000000    1.462679
      3          1           0        1.015259    0.000000   -0.472492
      4          1           0       -0.507526   -0.873677   -0.356132
      5          1           0       -0.507526    0.873677   -0.356132
      6          1           0        0.441900    0.827860    1.862052
      7          1           0        0.441900   -0.827860    1.862052
 ---------------------------------------------------------------------
                    Distance matrix (angstroms):
                    1          2          3          4          5
[...]
 Write DIPOLE INTEGRALS               from file   518 offset           0 to matrix element file.
 Array DIP VEL INTEGRALS               on  file    572 does not exist.
 Array R X DEL INTEGRALS               on  file    572 does not exist.
 Write ALPHA ORBITAL ENERGIES         from file     0 offset           0 to matrix element file.
 Write ALPHA MO COEFFICIENTS          from file 10524 offset           0 to matrix element file.
 Write ALPHA DENSITY MATRIX           from file     0 offset           0 to matrix element file.
 Write ALPHA SCF DENSITY MATRIX       from file 10528 offset           0 to matrix element file.
 Write ALPHA FOCK MATRIX              from file 10536 offset           0 to matrix element file.
 No 2e integrals to process.
 Perform NBO analysis...executing G09NBO...

 *********************************** NBO 7.0 ***********************************
             N A T U R A L   A T O M I C   O R B I T A L   A N D
          N A T U R A L   B O N D   O R B I T A L   A N A L Y S I S
 ************************ development version (D000000) ************************
  (c) Copyright 1996-2020 Board of Regents of the University of Wisconsin System
      on behalf of the Theoretical Chemistry Institute.  All rights reserved.

          Cite this program [NBO 7.0.9 (21-May-2020)] as:

          NBO 7.0.  E. D. Glendening, J. K. Badenhoop, A. E. Reed,
          J. E. Carpenter, J. A. Bohmann, C. M. Morales, P. Karafiloglou,
          C. R. Landis, and F. Weinhold, Theoretical Chemistry Institute,
          University of Wisconsin, Madison, WI (2018)

 Filename set to /scr/ericg/opt/Gau-20941

 Job title: Methylamine...rhf/3-21g optimization


 NATURAL POPULATIONS:  Natural atomic orbital occupancies

  NAO Atom No lang   Type(AO)    Occupancy      Energy
 -------------------------------------------------------
   1    C  1  s      Cor( 1s)     1.99978     -11.17840
   2    C  1  s      Val( 2s)     1.08927      -0.19713
   3    C  1  s      Ryd( 3s)     0.00071       1.95478
   4    C  1  px     Val( 2p)     1.21779      -0.06924
   5    C  1  px     Ryd( 3p)     0.00055       1.03851
   6    C  1  py     Val( 2p)     0.88707       0.01261
   7    C  1  py     Ryd( 3p)     0.00122       0.92997
   8    C  1  pz     Val( 2p)     1.24474      -0.08352
   9    C  1  pz     Ryd( 3p)     0.00069       1.01496

  10    N  2  s      Cor( 1s)     1.99984     -15.42894
  11    N  2  s      Val( 2s)     1.40084      -0.58058
  12    N  2  s      Ryd( 3s)     0.00019       2.72266
  13    N  2  px     Val( 2p)     1.85191      -0.33868
  14    N  2  px     Ryd( 3p)     0.00192       1.48816
  15    N  2  py     Val( 2p)     1.29507      -0.16724
  16    N  2  py     Ryd( 3p)     0.00088       1.57675
  17    N  2  pz     Val( 2p)     1.36150      -0.19207
  18    N  2  pz     Ryd( 3p)     0.00070       1.61184

  19    H  3  s      Val( 1s)     0.81404       0.15414
  20    H  3  s      Ryd( 2s)     0.00169       0.95037

  21    H  4  s      Val( 1s)     0.78173       0.17895
  22    H  4  s      Ryd( 2s)     0.00087       0.94276

  23    H  5  s      Val( 1s)     0.78173       0.17895
  24    H  5  s      Ryd( 2s)     0.00087       0.94276

  25    H  6  s      Val( 1s)     0.63113       0.23718
  26    H  6  s      Ryd( 2s)     0.00107       0.98020

  27    H  7  s      Val( 1s)     0.63113       0.23718
  28    H  7  s      Ryd( 2s)     0.00107       0.98020


 Summary of Natural Population Analysis:

                                     Natural Population
             Natural    ---------------------------------------------
  Atom No    Charge        Core      Valence    Rydberg      Total
 --------------------------------------------------------------------
    C  1   -0.44182      1.99978     4.43887    0.00317     6.44182
    N  2   -0.91286      1.99984     5.90933    0.00369     7.91286
    H  3    0.18426      0.00000     0.81404    0.00169     0.81574
    H  4    0.21741      0.00000     0.78173    0.00087     0.78259
    H  5    0.21741      0.00000     0.78173    0.00087     0.78259
    H  6    0.36780      0.00000     0.63113    0.00107     0.63220
    H  7    0.36780      0.00000     0.63113    0.00107     0.63220
 ====================================================================
 * Total *  0.00000      3.99962    13.98795    0.01243    18.00000

                                 Natural Population
 ---------------------------------------------------------
   Core                       3.99962 ( 99.9905% of    4)
   Valence                   13.98795 ( 99.9139% of   14)
   Natural Minimal Basis     17.98757 ( 99.9309% of   18)
   Natural Rydberg Basis      0.01243 (  0.0691% of   18)
 ---------------------------------------------------------

    Atom No         Natural Electron Configuration
 ----------------------------------------------------------------------------
      C  1      [core]2s( 1.09)2p( 3.35)
      N  2      [core]2s( 1.40)2p( 4.51)
      H  3            1s( 0.81)
      H  4            1s( 0.78)
      H  5            1s( 0.78)
      H  6            1s( 0.63)
      H  7            1s( 0.63)


 NATURAL BOND ORBITAL ANALYSIS:

                            Occupancies       Lewis Structure    Low   High
         Max    Occ     -------------------  -----------------   occ   occ
  Cycle  Ctr   Thresh    Lewis   non-Lewis     CR  BD  nC  LP    (L)   (NL)
 ============================================================================
    1     2     1.90    17.94763   0.05237      2   6   0   1     0      0
 ----------------------------------------------------------------------------

 Structure accepted: No low occupancy Lewis orbitals

 -------------------------------------------------------
   Core                      3.99962 ( 99.991% of   4)
   Valence Lewis            13.94801 ( 99.629% of  14)
  ==================      =============================
   Total Lewis              17.94763 ( 99.709% of  18)
  -----------------------------------------------------
   Valence non-Lewis         0.04315 (  0.240% of  18)
   Rydberg non-Lewis         0.00922 (  0.051% of  18)
  ==================      =============================
   Total non-Lewis           0.05237 (  0.291% of  18)
 -------------------------------------------------------


     (Occupancy)   Bond orbital / Coefficients / Hybrids
 ------------------ Lewis ------------------------------------------------------
   1. (1.99978) CR ( 1) C  1            s(100.00%)
                                         1.0000  0.0000  0.0000  0.0000  0.0000
                                         0.0000  0.0000  0.0000  0.0000
   2. (1.99984) CR ( 1) N  2            s(100.00%)
                                         1.0000  0.0000  0.0000  0.0000  0.0000
                                         0.0000  0.0000  0.0000  0.0000
   3. (1.97257) LP ( 1) N  2            s( 13.43%)p 6.45( 86.57%)
                                         0.0000  0.3664 -0.0003  0.8939 -0.0163
                                        -0.2578  0.0035  0.0000  0.0000
   4. (1.99876) BD ( 1) C  1- N  2
               ( 39.91%)   0.6318* C  1 s( 22.42%)p 3.46( 77.58%)
                                         0.0000  0.4729  0.0246 -0.0370  0.0074
                                        -0.8795 -0.0302  0.0000  0.0000
               ( 60.09%)   0.7752* N  2 s( 32.12%)p 2.11( 67.88%)
                                         0.0000  0.5667 -0.0011  0.0054  0.0069
                                         0.8239 -0.0008  0.0000  0.0000
   5. (1.99852) BD ( 1) C  1- H  3
               ( 59.86%)   0.7737* C  1 s( 26.26%)p 2.81( 73.74%)
                                         0.0000  0.5124 -0.0060 -0.8012  0.0053
                                         0.3089  0.0052  0.0000  0.0000
               ( 40.14%)   0.6336* H  3 s(100.00%)
                                         1.0000  0.0036
   6. (1.99370) BD ( 1) C  1- H  4
               ( 61.01%)   0.7811* C  1 s( 25.69%)p 2.89( 74.31%)
                                         0.0000  0.5068 -0.0046  0.4223 -0.0024
                                         0.2546  0.0008  0.7071 -0.0089
               ( 38.99%)   0.6244* H  4 s(100.00%)
                                         1.0000  0.0006
   7. (1.99370) BD ( 1) C  1- H  5
               ( 61.01%)   0.7811* C  1 s( 25.69%)p 2.89( 74.31%)
                                         0.0000  0.5068 -0.0046  0.4223 -0.0024
                                         0.2546  0.0008 -0.7071  0.0089
               ( 38.99%)   0.6244* H  5 s(100.00%)
                                         1.0000  0.0006
   8. (1.99539) BD ( 1) N  2- H  6
               ( 68.52%)   0.8278* N  2 s( 27.22%)p 2.67( 72.78%)
                                         0.0000  0.5217  0.0008 -0.3166  0.0042
                                        -0.3568 -0.0160 -0.7070 -0.0093
               ( 31.48%)   0.5611* H  6 s(100.00%)
                                         1.0000  0.0019
   9. (1.99539) BD ( 1) N  2- H  7
               ( 68.52%)   0.8278* N  2 s( 27.22%)p 2.67( 72.78%)
                                         0.0000  0.5217  0.0008 -0.3166  0.0042
                                        -0.3568 -0.0160  0.7070  0.0093
               ( 31.48%)   0.5611* H  7 s(100.00%)
                                         1.0000  0.0019
 ---------------- non-Lewis ----------------------------------------------------
  10. (0.00009) BD*( 1) C  1- N  2
               ( 60.09%)   0.7752* C  1 s( 22.42%)p 3.46( 77.58%)
               ( 39.91%)  -0.6318* N  2 s( 32.12%)p 2.11( 67.88%)
  11. (0.01971) BD*( 1) C  1- H  3
               ( 40.14%)   0.6336* C  1 s( 26.26%)p 2.81( 73.74%)
                                         0.0000 -0.5124  0.0060  0.8012 -0.0053
                                        -0.3089 -0.0052  0.0000  0.0000
               ( 59.86%)  -0.7737* H  3 s(100.00%)
                                        -1.0000 -0.0036
  12. (0.00726) BD*( 1) C  1- H  4
               ( 38.99%)   0.6244* C  1 s( 25.69%)p 2.89( 74.31%)
                                         0.0000 -0.5068  0.0046 -0.4223  0.0024
                                        -0.2546 -0.0008 -0.7071  0.0089
               ( 61.01%)  -0.7811* H  4 s(100.00%)
                                        -1.0000 -0.0006
  13. (0.00726) BD*( 1) C  1- H  5
               ( 38.99%)   0.6244* C  1 s( 25.69%)p 2.89( 74.31%)
                                         0.0000 -0.5068  0.0046 -0.4223  0.0024
                                        -0.2546 -0.0008  0.7071 -0.0089
               ( 61.01%)  -0.7811* H  5 s(100.00%)
                                        -1.0000 -0.0006
  14. (0.00441) BD*( 1) N  2- H  6
               ( 31.48%)   0.5611* N  2 s( 27.22%)p 2.67( 72.78%)
                                         0.0000 -0.5217 -0.0008  0.3166 -0.0042
                                         0.3568  0.0160  0.7070  0.0093
               ( 68.52%)  -0.8278* H  6 s(100.00%)
                                        -1.0000 -0.0019
  15. (0.00441) BD*( 1) N  2- H  7
               ( 31.48%)   0.5611* N  2 s( 27.22%)p 2.67( 72.78%)
                                         0.0000 -0.5217 -0.0008  0.3166 -0.0042
                                         0.3568  0.0160 -0.7070 -0.0093
               ( 68.52%)  -0.8278* H  7 s(100.00%)
                                        -1.0000 -0.0019
  16. (0.00089) RY ( 1) C  1            s(  0.12%)p99.99( 99.88%)
                                         0.0000 -0.0105  0.0336  0.0028  0.6921
                                         0.0258 -0.7204  0.0000  0.0000
  17. (0.00052) RY ( 2) C  1            s(  0.00%)p 1.00(100.00%)
                                         0.0000  0.0000  0.0000  0.0000  0.0000
                                         0.0000  0.0000  0.0126  0.9999
  18. (0.00014) RY ( 3) C  1            s( 93.23%)p 0.07(  6.77%)
                                         0.0000 -0.0047  0.9656 -0.0017 -0.2080
                                         0.0282 -0.1537  0.0000  0.0000
  19. (0.00001) RY ( 4) C  1            s(  6.59%)p14.18( 93.41%)
  20. (0.00132) RY ( 1) N  2            s(  1.85%)p53.07( 98.15%)
                                         0.0000 -0.0028  0.1360  0.0175  0.9903
                                        -0.0064 -0.0234  0.0000  0.0000
  21. (0.00044) RY ( 2) N  2            s(  0.00%)p 1.00(100.00%)
                                         0.0000  0.0000  0.0000  0.0000  0.0000
                                         0.0000  0.0000 -0.0131  0.9999
  22. (0.00030) RY ( 3) N  2            s( 54.19%)p 0.85( 45.81%)
                                         0.0000  0.0108  0.7360 -0.0097 -0.0850
                                        -0.0050  0.6714  0.0000  0.0000
  23. (0.00001) RY ( 4) N  2            s( 43.99%)p 1.27( 56.01%)
  24. (0.00171) RY ( 1) H  3            s(100.00%)
                                        -0.0036  1.0000
  25. (0.00087) RY ( 1) H  4            s(100.00%)
                                        -0.0006  1.0000
  26. (0.00087) RY ( 1) H  5            s(100.00%)
                                        -0.0006  1.0000
  27. (0.00108) RY ( 1) H  6            s(100.00%)
                                        -0.0019  1.0000
  28. (0.00108) RY ( 1) H  7            s(100.00%)
                                        -0.0019  1.0000


 NHO DIRECTIONALITY AND BOND BENDING (deviation from line of nuclear centers at
                                      the position of maximum hybrid amplitude)

         [Thresholds for printing:  angular deviation  >  1.0 degree]
                                    p- or d-character  > 25.0%
                                    orbital occupancy  >  0.10e

                        Line of Centers        Hybrid 1             Hybrid 2
                        ---------------  -------------------  ------------------
           NBO            Theta   Phi    Theta   Phi    Dev   Theta   Phi    Dev
 ===============================================================================
   3. LP ( 1) N  2          --     --     90.0  344.5   --      --     --    --
   4. BD ( 1) C  1- N  2   90.0  270.0    90.0  268.7   1.3     --     --    --
   5. BD ( 1) C  1- H  3   90.0  155.2    90.0  158.0   2.8     --     --    --
   6. BD ( 1) C  1- H  4   36.2   33.3    35.3   31.0   1.6     --     --    --
   7. BD ( 1) C  1- H  5  143.8   33.3   144.7   31.0   1.6     --     --    --
   8. BD ( 1) N  2- H  6  145.6  225.2   145.9  228.3   1.8     --     --    --
   9. BD ( 1) N  2- H  7   34.4  225.2    34.1  228.3   1.8     --     --    --


 SECOND ORDER PERTURBATION THEORY ANALYSIS OF FOCK MATRIX IN NBO BASIS

     Threshold for printing:   0.50 kcal/mol
                                                          E(2) E(NL)-E(L) F(L,NL)
      Donor (L) NBO              Acceptor (NL) NBO      kcal/mol   a.u.    a.u.
 ===============================================================================

 within unit  1
    1. CR ( 1) C  1            18. RY ( 3) C  1            0.53   13.04   0.074
    2. CR ( 1) N  2            22. RY ( 3) N  2            0.61   17.73   0.093
    3. LP ( 1) N  2            11. BD*( 1) C  1- H  3     10.82    1.10   0.097
    3. LP ( 1) N  2            12. BD*( 1) C  1- H  4      1.86    1.12   0.041
    3. LP ( 1) N  2            13. BD*( 1) C  1- H  5      1.86    1.12   0.041
    5. BD ( 1) C  1- H  3      20. RY ( 1) N  2            0.94    2.15   0.040
    6. BD ( 1) C  1- H  4      14. BD*( 1) N  2- H  6      2.99    1.36   0.057
    7. BD ( 1) C  1- H  5      15. BD*( 1) N  2- H  7      2.99    1.36   0.057
    8. BD ( 1) N  2- H  6      12. BD*( 1) C  1- H  4      2.26    1.49   0.052
    9. BD ( 1) N  2- H  7      13. BD*( 1) C  1- H  5      2.26    1.49   0.052


 NATURAL BOND ORBITALS (Summary):

                                                     Principal Delocalizations
           NBO                 Occupancy    Energy   (geminal,vicinal,remote)
 ===============================================================================
 Molecular unit  1  (CH5N)
 ------ Lewis --------------------------------------
    1. CR ( 1) C  1             1.99978   -11.17840  18(g)
    2. CR ( 1) N  2             1.99984   -15.42894  22(g)
    3. LP ( 1) N  2             1.97257    -0.40268  11(v),12(v),13(v)
    4. BD ( 1) C  1- N  2       1.99876    -0.80619
    5. BD ( 1) C  1- H  3       1.99852    -0.65507  20(v)
    6. BD ( 1) C  1- H  4       1.99370    -0.65295  14(v)
    7. BD ( 1) C  1- H  5       1.99370    -0.65295  15(v)
    8. BD ( 1) N  2- H  6       1.99539    -0.77276  12(v)
    9. BD ( 1) N  2- H  7       1.99539    -0.77276  13(v)
 ------ non-Lewis ----------------------------------
   10. BD*( 1) C  1- N  2       0.00009     0.57358
   11. BD*( 1) C  1- H  3       0.01971     0.69296
   12. BD*( 1) C  1- H  4       0.00726     0.71379
   13. BD*( 1) C  1- H  5       0.00726     0.71379
   14. BD*( 1) N  2- H  6       0.00441     0.70279
   15. BD*( 1) N  2- H  7       0.00441     0.70279
   16. RY ( 1) C  1             0.00089     0.98656
   17. RY ( 2) C  1             0.00052     1.01771
   18. RY ( 3) C  1             0.00014     1.86398
   19. RY ( 4) C  1             0.00001     1.06438
   20. RY ( 1) N  2             0.00132     1.49899
   21. RY ( 2) N  2             0.00044     1.61020
   22. RY ( 3) N  2             0.00030     2.29888
   23. RY ( 4) N  2             0.00001     1.98943
   24. RY ( 1) H  3             0.00171     0.94787
   25. RY ( 1) H  4             0.00087     0.94234
   26. RY ( 1) H  5             0.00087     0.94234
   27. RY ( 1) H  6             0.00108     0.97873
   28. RY ( 1) H  7             0.00108     0.97873
          -------------------------------
                 Total Lewis   17.94763  ( 99.7091%)
           Valence non-Lewis    0.04315  (  0.2397%)
           Rydberg non-Lewis    0.00922  (  0.0512%)
          -------------------------------
               Total unit  1   18.00000  (100.0000%)
              Charge unit  1    0.00000

 $CHOOSE
   LONE 2 1 END
   BOND S 1 2 S 1 3 S 1 4 S 1 5 S 2 6 S 2 7 END
 $END

 NBO analysis completed in 0.05 CPU seconds (0 wall seconds)
 Maximum scratch memory used by NBO was 240575 words (1.84 MB)
 Maximum scratch memory used by G09NBO was 9478 words (0.07 MB)

 Read Unf file /scr/ericg/opt/Gau-20941.EUF:
 Label Gaussian matrix elements                                         IVers= 1 NLab= 2 Version=ES64L-G09RevE.01
 Title Methylamine...rhf/3-21g optimization                            
 NAtoms=     7 NBasis=    28 NBsUse=    28 ICharg=     0 Multip=     1 NE=    18 Len12L=8 Len4L=8
 Label GAUSSIAN SCALARS                                                 NI= 1 NR= 1 NTot=       1 LenBuf=    2000 N=    1000       1       1       1       1
 Label NPA CHARGES                                                      NI= 0 NR= 1 NTot=       7 LenBuf=    4000 N=       7       0       0       0       0
 Recovered energy= -94.6816558338     dipole=      0.000000000000      0.000000000000      0.000000000000
 1\1\GINC-NEUTRON\FOpt\RHF\3-21G\C1H5N1\ERICG\18-May-2020\0\\# rhf/3-21
 g opt pop=nbo6\\Methylamine...rhf/3-21g optimization\\0,1\C,0.02887320
 56,0.,-0.0086946081\N,0.0393577552,0.,1.4626792889\H,1.0152586034,0.,-
 0.4724915058\H,-0.5075261656,-0.8736774136,-0.3561321575\H,-0.50752616
 56,0.8736774136,-0.3561321575\H,0.4418999469,0.8278596348,1.8620522359
 \H,0.4418999469,-0.8278596348,1.8620522359\\Version=ES64L-G09RevE.01\S
 tate=1-A'\HF=-94.6816558\RMSD=9.014e-10\RMSF=2.858e-05\Dipole=0.546603
 2,0.,-0.1476219\Quadrupole=-1.0109783,0.9360628,0.0749154,0.,1.6182641
 ,0.\PG=CS [SG(C1H1N1),X(H4)]\\@


 FIREWORKS ENDED
 AND SPECTATORS GONE AWAY....
 AH, HOW VAST AND DARK
                     SHIKI
 Job cpu time:       0 days  0 hours  0 minutes 14.0 seconds.
 File lengths (MBytes):  RWF=      5 Int=      0 D2E=      0 Chk=      1 Scr=      1
 Normal termination of Gaussian 09 at Mon May 18 14:18:22 2020.
