 Entering Gaussian System, Link 0=/opt/g16.c01/g16/g16
 Initial command:
 /opt/g16.c01/g16/l1.exe "/scr/ericg/b.11.3.4b/Gau-18531.inp" -scrdir="/scr/ericg/b.11.3.4b/"
 Entering Link 1 = /opt/g16.c01/g16/l1.exe PID=     18533.
  
 Copyright (c) 1988-2019, Gaussian, Inc.  All Rights Reserved.
  
 This is part of the Gaussian(R) 16 program.  It is based on
 the Gaussian(R) 09 system (copyright 2009, Gaussian, Inc.),
 the Gaussian(R) 03 system (copyright 2003, Gaussian, Inc.),
 the Gaussian(R) 98 system (copyright 1998, Gaussian, Inc.),
 the Gaussian(R) 94 system (copyright 1995, Gaussian, Inc.),
 the Gaussian 92(TM) system (copyright 1992, Gaussian, Inc.),
 the Gaussian 90(TM) system (copyright 1990, Gaussian, Inc.),
 the Gaussian 88(TM) system (copyright 1988, Gaussian, Inc.),
 the Gaussian 86(TM) system (copyright 1986, Carnegie Mellon
 University), and the Gaussian 82(TM) system (copyright 1983,
 Carnegie Mellon University). Gaussian is a federally registered
 trademark of Gaussian, Inc.
  
 This software contains proprietary and confidential information,
 including trade secrets, belonging to Gaussian, Inc.
  
 This software is provided under written license and may be
 used, copied, transmitted, or stored only in accord with that
 written license.
  
 The following legend is applicable only to US Government
 contracts under FAR:
  
                    RESTRICTED RIGHTS LEGEND
  
 Use, reproduction and disclosure by the US Government is
 subject to restrictions as set forth in subparagraphs (a)
 and (c) of the Commercial Computer Software - Restricted
 Rights clause in FAR 52.227-19.
  
 Gaussian, Inc.
 340 Quinnipiac St., Bldg. 40, Wallingford CT 06492
  
  
 ---------------------------------------------------------------
 Warning -- This program may not be used in any manner that
 competes with the business of Gaussian, Inc. or will provide
 assistance to any competitor of Gaussian, Inc.  The licensee
 of this program is prohibited from giving any competitor of
 Gaussian, Inc. access to this program.  By using this program,
 the user acknowledges that Gaussian, Inc. is engaged in the
 business of creating and licensing software in the field of
 computational chemistry and represents and warrants to the
 licensee that it is not a competitor of Gaussian, Inc. and that
 it will not use this program in any manner prohibited above.
 ---------------------------------------------------------------
  

 Cite this work as:
 Gaussian 16, Revision C.01,
 M. J. Frisch, G. W. Trucks, H. B. Schlegel, G. E. Scuseria, 
 M. A. Robb, J. R. Cheeseman, G. Scalmani, V. Barone, 
 G. A. Petersson, H. Nakatsuji, X. Li, M. Caricato, A. V. Marenich, 
 J. Bloino, B. G. Janesko, R. Gomperts, B. Mennucci, H. P. Hratchian, 
 J. V. Ortiz, A. F. Izmaylov, J. L. Sonnenberg, D. Williams-Young, 
 F. Ding, F. Lipparini, F. Egidi, J. Goings, B. Peng, A. Petrone, 
 T. Henderson, D. Ranasinghe, V. G. Zakrzewski, J. Gao, N. Rega, 
 G. Zheng, W. Liang, M. Hada, M. Ehara, K. Toyota, R. Fukuda, 
 J. Hasegawa, M. Ishida, T. Nakajima, Y. Honda, O. Kitao, H. Nakai, 
 T. Vreven, K. Throssell, J. A. Montgomery, Jr., J. E. Peralta, 
 F. Ogliaro, M. J. Bearpark, J. J. Heyd, E. N. Brothers, K. N. Kudin, 
 V. N. Staroverov, T. A. Keith, R. Kobayashi, J. Normand, 
 K. Raghavachari, A. P. Rendell, J. C. Burant, S. S. Iyengar, 
 J. Tomasi, M. Cossi, J. M. Millam, M. Klene, C. Adamo, R. Cammi, 
 J. W. Ochterski, R. L. Martin, K. Morokuma, O. Farkas, 
 J. B. Foresman, and D. J. Fox, Gaussian, Inc., Wallingford CT, 2019.
 
 ******************************************
 Gaussian 16:  ES64L-G16RevC.01  3-Jul-2019
                20-May-2020 
 ******************************************
 %nproc=4
 Will use up to    4 processors via shared memory.
 --------------------------
 # b3lyp/aug-cc-pvtz neda=2
 --------------------------
 1/38=1,62=2,160=70,172=1/1;
 2/12=2,17=6,18=5,40=1/2;
 1/38=1,53=2,62=2,63=1,160=70/22;
 3/5=16,6=1,7=10,11=2,25=1,30=1,74=-5/1,2,3;
 4//1;
 5/5=2,38=5/2;
 6/7=2,8=2,9=2,10=2,28=1,40=111,113=1,114=1,124=2103/1,12(1);
 99/5=1,9=1/99;
 5/5=2,7=1,13=1,38=1,48=100000/2;
 6/7=2,8=2,9=2,10=2,28=1,40=203,113=1,114=1,124=2103/12(-1);
 1/53=2,62=2,63=1,160=70/22;
 3/5=7,6=11,7=10,11=2,25=1,30=1,74=-5,82=7/1,2,3;
 4/5=19/1;
 5/5=2,38=1,48=100000,185=1/2;
 1/53=2,62=2,63=1,160=70/22(-3);
 2//2;
 6/7=2,8=2,9=2,10=2,19=2,28=1,40=301,113=1,114=1,124=2103/1,12;
 99/5=1,9=1/99;
 -----------------------------------------
 water dimer (geometry of C3 water trimer)
 -----------------------------------------
 Symbolic Z-matrix:
 Charge =  0 Multiplicity = 1 in supermolecule
 Charge =  0 Multiplicity = 1 in fragment      1.
 Charge =  0 Multiplicity = 1 in fragment      2.
 O                    -0.95741   1.30438  -0.09187    
 H                     0.01417   1.24427  -0.03794    
 H                    -1.22539   1.97501   0.54138    
 O                     1.60834   0.17699  -0.09195    
 H                     1.07053  -0.63439  -0.03811    
 H                     2.32295   0.07383   0.54151    
 
                          Input orientation:                          
 ---------------------------------------------------------------------
 Center     Atomic      Atomic             Coordinates (Angstroms)
 Number     Number       Type             X           Y           Z
 ---------------------------------------------------------------------
      1          8           0       -0.957406    1.304375   -0.091870
      2          1           0        0.014172    1.244266   -0.037940
      3          1           0       -1.225393    1.975012    0.541376
      4          8           0        1.608343    0.176994   -0.091952
      5          1           0        1.070533   -0.634390   -0.038105
      6          1           0        2.322945    0.073834    0.541511
 ---------------------------------------------------------------------
                    Distance matrix (angstroms):
                    1          2          3          4          5
     1  O    0.000000
     2  H    0.974928   0.000000
     3  H    0.960506   1.551167   0.000000
     4  O    2.802509   1.919210   3.415265   0.000000
     5  H    2.806107   2.155283   3.523642   0.974927   0.000000
     6  H    3.560352   2.652566   4.025566   0.960507   1.551152
                    6
     6  H    0.000000
 Stoichiometry    H4O2
 Framework group  C1[X(H4O2)]
 Deg. of freedom    12
 Full point group                 C1      NOp   1
 Largest Abelian subgroup         C1      NOp   1
 Largest concise Abelian subgroup C1      NOp   1
                         Standard orientation:                         
 ---------------------------------------------------------------------
 Center     Atomic      Atomic             Coordinates (Angstroms)
 Number     Number       Type             X           Y           Z
 ---------------------------------------------------------------------
      1          8           0        1.445944    0.095927   -0.022869
      2          1           0        0.549306   -0.261747   -0.159230
      3          1           0        1.983621   -0.630647    0.302040
      4          8           0       -1.353344   -0.019390   -0.091737
      5          1           0       -1.233593    0.801714    0.420055
      6          1           0       -2.040133   -0.521615    0.353981
 ---------------------------------------------------------------------
 Rotational constants (GHZ):         247.0969516           6.8960748           6.8053295
 NEDA: doing full-system calculation.
 Standard basis: Aug-CC-pVTZ (5D, 7F)
 There are   210 symmetry adapted cartesian basis functions of A   symmetry.
 There are   184 symmetry adapted basis functions of A   symmetry.
   184 basis functions,   252 primitive gaussians,   210 cartesian basis functions
    10 alpha electrons       10 beta electrons
       nuclear repulsion energy        37.1362118970 Hartrees.
 NAtoms=    6 NActive=    6 NUniq=    6 SFac= 1.00D+00 NAtFMM=   60 NAOKFM=F Big=F
 Integral buffers will be    131072 words long.
 Raffenetti 2 integral format.
 Two-electron integral symmetry is turned on.
 One-electron integrals computed using PRISM.
 NBasis=   184 RedAO= T EigKep=  2.34D-04  NBF=   184
 NBsUse=   184 1.00D-06 EigRej= -1.00D+00 NBFU=   184
 ExpMin= 2.53D-02 ExpMax= 1.53D+04 ExpMxC= 5.22D+02 IAcc=3 IRadAn=         5 AccDes= 0.00D+00
 Harris functional with IExCor=  402 and IRadAn=       5 diagonalized for initial guess.
 HarFok:  IExCor=  402 AccDes= 0.00D+00 IRadAn=         5 IDoV= 1 UseB2=F ITyADJ=14
 ICtDFT=  3500011 ScaDFX=  1.000000  1.000000  1.000000  1.000000
 FoFCou: FMM=F IPFlag=           0 FMFlag=      100000 FMFlg1=           0
         NFxFlg=           0 DoJE=T BraDBF=F KetDBF=T FulRan=T
         wScrn=  0.000000 ICntrl=       500 IOpCl=  0 I1Cent=   200000004 NGrid=           0
         NMat0=    1 NMatS0=      1 NMatT0=    0 NMatD0=    1 NMtDS0=    0 NMtDT0=    0
 Petite list used in FoFCou.
 Requested convergence on RMS density matrix=1.00D-08 within 128 cycles.
 Requested convergence on MAX density matrix=1.00D-06.
 Requested convergence on             energy=1.00D-06.
 No special actions if energy rises.
 SCF Done:  E(RB3LYP) =  -152.938049452     A.U. after    9 cycles
            NFock=  9  Conv=0.38D-08     -V/T= 2.0061

 **********************************************************************

            Population analysis using the SCF Density.

 **********************************************************************

 Orbital symmetries:
       Occupied  (A) (A) (A) (A) (A) (A) (A) (A) (A) (A)
       Virtual   (A) (A) (A) (A) (A) (A) (A) (A) (A) (A) (A) (A)
                 (A) (A) (A) (A) (A) (A) (A) (A) (A) (A) (A) (A)
                 (A) (A) (A) (A) (A) (A) (A) (A) (A) (A) (A) (A)
                 (A) (A) (A) (A) (A) (A) (A) (A) (A) (A) (A) (A)
                 (A) (A) (A) (A) (A) (A) (A) (A) (A) (A) (A) (A)
                 (A) (A) (A) (A) (A) (A) (A) (A) (A) (A) (A) (A)
                 (A) (A) (A) (A) (A) (A) (A) (A) (A) (A) (A) (A)
                 (A) (A) (A) (A) (A) (A) (A) (A) (A) (A) (A) (A)
                 (A) (A) (A) (A) (A) (A) (A) (A) (A) (A) (A) (A)
                 (A) (A) (A) (A) (A) (A) (A) (A) (A) (A) (A) (A)
                 (A) (A) (A) (A) (A) (A) (A) (A) (A) (A) (A) (A)
                 (A) (A) (A) (A) (A) (A) (A) (A) (A) (A) (A) (A)
                 (A) (A) (A) (A) (A) (A) (A) (A) (A) (A) (A) (A)
                 (A) (A) (A) (A) (A) (A) (A) (A) (A) (A) (A) (A)
                 (A) (A) (A) (A) (A) (A)
 The electronic state is 1-A.
 Alpha  occ. eigenvalues --  -19.16223 -19.11390  -1.04122  -0.99284  -0.56482
 Alpha  occ. eigenvalues --   -0.51789  -0.42125  -0.37557  -0.34428  -0.30046
 Alpha virt. eigenvalues --   -0.03392   0.00192   0.01712   0.04190   0.06840
 Alpha virt. eigenvalues --    0.08259   0.09228   0.10594   0.11302   0.11866
 Alpha virt. eigenvalues --    0.14461   0.14991   0.16443   0.17179   0.18712
 Alpha virt. eigenvalues --    0.20877   0.21746   0.23178   0.26696   0.27681
 Alpha virt. eigenvalues --    0.30579   0.31182   0.32415   0.33615   0.34960
 Alpha virt. eigenvalues --    0.35436   0.36945   0.44634   0.46951   0.50312
 Alpha virt. eigenvalues --    0.53402   0.55823   0.57145   0.58604   0.61185
 Alpha virt. eigenvalues --    0.61650   0.63696   0.66860   0.69081   0.70177
 Alpha virt. eigenvalues --    0.72968   0.75236   0.76473   0.78056   0.79290
 Alpha virt. eigenvalues --    0.81417   0.82417   0.82706   0.83965   0.86155
 Alpha virt. eigenvalues --    0.88789   0.88970   0.89513   0.92364   0.94251
 Alpha virt. eigenvalues --    0.99139   1.00197   1.02164   1.03621   1.04640
 Alpha virt. eigenvalues --    1.08677   1.10863   1.13561   1.15488   1.18016
 Alpha virt. eigenvalues --    1.25265   1.26377   1.32152   1.37541   1.41692
 Alpha virt. eigenvalues --    1.44136   1.46603   1.48681   1.55806   1.60511
 Alpha virt. eigenvalues --    1.63988   1.70498   1.72719   1.75894   1.84384
 Alpha virt. eigenvalues --    1.90530   2.01595   2.03324   2.04934   2.09778
 Alpha virt. eigenvalues --    2.12036   2.14968   2.18880   2.19673   2.20875
 Alpha virt. eigenvalues --    2.23266   2.24542   2.26535   2.35509   2.40054
 Alpha virt. eigenvalues --    2.40979   2.44008   2.46605   2.49503   2.54229
 Alpha virt. eigenvalues --    2.58019   2.60670   2.64836   2.67386   2.72164
 Alpha virt. eigenvalues --    2.87812   3.39972   3.43683   3.47289   3.68493
 Alpha virt. eigenvalues --    3.72189   3.74114   3.81735   3.86001   3.90102
 Alpha virt. eigenvalues --    3.96311   3.97539   4.01290   4.06046   4.08986
 Alpha virt. eigenvalues --    4.09828   4.12080   4.13937   4.18323   4.21688
 Alpha virt. eigenvalues --    4.29115   4.31730   4.32918   4.37593   4.41649
 Alpha virt. eigenvalues --    4.52654   4.57252   4.78266   4.79806   4.83184
 Alpha virt. eigenvalues --    4.89413   4.92540   4.95586   4.98830   5.01833
 Alpha virt. eigenvalues --    5.12091   5.17565   5.35420   5.38697   5.76256
 Alpha virt. eigenvalues --    5.81776   6.09814   6.11889   6.31222   6.33572
 Alpha virt. eigenvalues --    6.42359   6.47515   6.66167   6.69831   6.77623
 Alpha virt. eigenvalues --    6.78935   6.82058   6.82502   6.82758   6.84685
 Alpha virt. eigenvalues --    6.87116   6.90625   6.97275   6.99793   7.14960
 Alpha virt. eigenvalues --    7.25230   7.39219   7.40593   7.54086   7.57952
 Alpha virt. eigenvalues --    8.28620   8.30775  15.11052  15.39179
          Condensed to atoms (all electrons):
               1          2          3          4          5          6
     1  O    7.954051   0.216551   0.257195  -0.025104   0.005062   0.001497
     2  H    0.216551   0.528607   0.018956  -0.017867   0.003839   0.000253
     3  H    0.257195   0.018956   0.571612  -0.001633  -0.000788  -0.000764
     4  O   -0.025104  -0.017867  -0.001633   7.925194   0.247480   0.241307
     5  H    0.005062   0.003839  -0.000788   0.247480   0.535986   0.003401
     6  H    0.001497   0.000253  -0.000764   0.241307   0.003401   0.585781
 Mulliken charges:
               1
     1  O   -0.409253
     2  H    0.249662
     3  H    0.155422
     4  O   -0.369377
     5  H    0.205021
     6  H    0.168525
 Sum of Mulliken charges =  -0.00000
 Mulliken charges with hydrogens summed into heavy atoms:
               1
     1  O   -0.004168
     4  O    0.004168
         Mulliken charges condensed to fragments:
      1     -0.004168
      2      0.004168
 Electronic spatial extent (au):  <R**2>=            181.5929
 Charge=             -0.0000 electrons
 Dipole moment (field-independent basis, Debye):
    X=             -2.0255    Y=             -1.1955    Z=              1.8115  Tot=              2.9687
 Quadrupole moment (field-independent basis, Debye-Ang):
   XX=            -10.5243   YY=            -11.6347   ZZ=            -14.3691
   XY=             -2.3616   XZ=             -1.4319   YZ=              0.0011
 Traceless Quadrupole moment (field-independent basis, Debye-Ang):
   XX=              1.6518   YY=              0.5413   ZZ=             -2.1931
   XY=             -2.3616   XZ=             -1.4319   YZ=              0.0011
 Octapole moment (field-independent basis, Debye-Ang**2):
  XXX=             -6.1500  YYY=             -0.0992  ZZZ=              0.7953  XYY=             -2.1307
  XXY=             -8.4916  XXZ=              7.7929  XZZ=             -1.3832  YZZ=             -0.1094
  YYZ=              1.1463  XYZ=             -1.1463
 Hexadecapole moment (field-independent basis, Debye-Ang**3):
 XXXX=           -148.4046 YYYY=            -15.1561 ZZZZ=            -15.9916 XXXY=             -2.7307
 XXXZ=             -2.7586 YYYX=             -2.2309 YYYZ=              0.2314 ZZZX=             -0.6885
 ZZZY=              0.0302 XXYY=            -26.6520 XXZZ=            -33.4126 YYZZ=             -5.0302
 XXYZ=             -2.1402 YYXZ=             -0.7689 ZZXY=             -0.5047
 N-N= 3.713621189697D+01 E-N=-4.356543532227D+02  KE= 1.520104512042D+02
 Running external command "gaunbo7 R"
         input file       "/scr/ericg/b.11.3.4b/Gau-18533.EIn"
         output file      "/scr/ericg/b.11.3.4b/Gau-18533.EOu"
         message file     "/scr/ericg/b.11.3.4b/Gau-18533.EMs"
         fchk file        "/scr/ericg/b.11.3.4b/Gau-18533.EFC"
         mat. el file     "/scr/ericg/b.11.3.4b/Gau-18533.EUF"

 Writing WrtUnf unformatted file "/scr/ericg/b.11.3.4b/Gau-18533.EUF"
 Gaussian matrix elements                                         Version   2 NLab=11 Len12L=8 Len4L=8
 Write SHELL TO ATOM MAP                   from file      0 offset           0 length                  64 to matrix element file.
 Write SHELL TYPES                         from file      0 offset           0 length                  64 to matrix element file.
 Write NUMBER OF PRIMITIVES PER SHELL      from file      0 offset           0 length                  64 to matrix element file.
 Write PRIMITIVE EXPONENTS                 from file      0 offset           0 length                  98 to matrix element file.
 Write CONTRACTION COEFFICIENTS            from file      0 offset           0 length                  98 to matrix element file.
 Write P(S=P) CONTRACTION COEFFICIENTS     from file      0 offset           0 length                  98 to matrix element file.
 Write COORDINATES OF EACH SHELL           from file      0 offset           0 length                 192 to matrix element file.
 Write BONDS PER ATOM                      from file      0 offset           0 length                   6 to matrix element file.
 Write BONDED ATOMS                        from file      0 offset           0 length                   8 to matrix element file.
 Write BOND TYPES                          from file      0 offset           0 length                   8 to matrix element file.
 Write ONIOM CHARGE/MULT                   from file      0 offset           0 length                  32 to matrix element file.
 Write ONIOM ATOM LAYERS                   from file      0 offset           0 length                   6 to matrix element file.
 Write ONIOM ATOM MODIFIERS                from file      0 offset           0 length                   6 to matrix element file.
 Write ONIOM ATOM TYPES                    from file      0 offset           0 length                   6 to matrix element file.
 Write ONIOM LINK ATOMS                    from file      0 offset           0 length                   6 to matrix element file.
 Write ONIOM LINK CHARGES                  from file      0 offset           0 length                   6 to matrix element file.
 Write ONIOM LINK DISTANCES                from file      0 offset           0 length                  24 to matrix element file.
 Write SYMINF INTS                         from file      0 offset           0 length                  26 to matrix element file.
 Write ROTTR TO SO                         from file      0 offset           0 length                  12 to matrix element file.
 Write GAUSSIAN SCALARS                    from file    501 offset           0 to matrix element file.
 Write OPTIMIZATION FLAGS                  from file      0 offset           0 length                   6 to matrix element file.
 Write INTEGER ISO                         from file      0 offset           0 length                   6 to matrix element file.
 Write INTEGER FRAGMENT                    from file      0 offset           0 length                   6 to matrix element file.
 Write INTEGER SPIN                        from file      0 offset           0 length                   6 to matrix element file.
 Write REAL ZEFFECTIVE                     from file      0 offset           0 length                   6 to matrix element file.
 Write REAL GFACTOR                        from file      0 offset           0 length                   6 to matrix element file.
 Write REAL ZNUCLEAR                       from file      0 offset           0 length                   6 to matrix element file.
 Write MULLIKEN CHARGES                    from file      0 offset           0 length                   6 to matrix element file.
 Write NUCLEAR GRADIENT                    from file  10584 offset           0 length                  18 to matrix element file.
 Array NUCLEAR FORCE CONSTANTS              on  file  10585 does not exist.
 Write ELECTRIC DIPOLE MOMENT              from file      0 offset           0 length                   3 to matrix element file.
 Write NON-ADIABATIC COUPLING              from file  10810 offset           0 length                  18 to matrix element file.
 Write ELECTRONS PER FRAGMENT              from file      0 offset           0 length                   8 to matrix element file.
 Write BASIS FUNCTIONS PER FRAGMENT        from file      0 offset           0 length                  96 to matrix element file.
 Write FINITE EM FIELD                     from file  10521 offset           0 length                  35 to matrix element file.
 Write OVERLAP                             from file  10514 offset           0 length               17020 to matrix element file.
 Write CORE HAMILTONIAN ALPHA              from file  10515 offset           0 length               17020 to matrix element file.
 Write CORE HAMILTONIAN BETA               from file  10515 offset       17020 length               17020 to matrix element file.
 Write KINETIC ENERGY                      from file  10516 offset           0 length               17020 to matrix element file.
 Write ORTHOGONAL BASIS                    from file  10685 offset           0 length               33856 to matrix element file.
 Write DIPOLE INTEGRALS                    from file  10518 offset           0 length               51060 to matrix element file.
 Array DIP VEL INTEGRALS                    on  file  10572 does not exist.
 Array R X DEL INTEGRALS                    on  file  10572 does not exist.
 Write ALPHA ORBITAL ENERGIES              from file      0 offset           0 length                 184 to matrix element file.
 Write ALPHA MO COEFFICIENTS               from file  10524 offset           0 length               33856 to matrix element file.
 Write ALPHA DENSITY MATRIX                from file      0 offset           0 length               17020 to matrix element file.
 Write ALPHA FOCK MATRIX                   from file  10536 offset           0 length               17020 to matrix element file.
 Write ENERGY-WEIGHTED DENSITY             from file  10571 offset           0 length               17020 to matrix element file.
 Write ALPHA SCF DENSITY MATRIX            from file      0 offset           0 length               17020 to matrix element file.
 Write INTEGER PARAMETERS                  from file      0 offset           0 length                   2 to matrix element file.
 No 2e integrals to process.
 Perform NBO analysis...executing G16NBO...

 *********************************** NBO 7.0 ***********************************
             N A T U R A L   A T O M I C   O R B I T A L   A N D
          N A T U R A L   B O N D   O R B I T A L   A N A L Y S I S
 ************************ development version (D000000) ************************
  (c) Copyright 1996-2020 Board of Regents of the University of Wisconsin System
      on behalf of the Theoretical Chemistry Institute.  All rights reserved.

          Cite this program [NBO 7.0.9 (21-May-2020)] as:

          NBO 7.0.  E. D. Glendening, J. K. Badenhoop, A. E. Reed,
          J. E. Carpenter, J. A. Bohmann, C. M. Morales, P. Karafiloglou,
          C. R. Landis, and F. Weinhold, Theoretical Chemistry Institute,
          University of Wisconsin, Madison, WI (2018)


 Filename set to /scr/ericg/b.11.3.4b/Gau-18533

 Job title: water dimer (geometry of C3 water trimer)


 NATURAL POPULATIONS:  Natural atomic orbital occupancies

  NAO Atom No lang   Type(AO)    Occupancy      Energy
 -------------------------------------------------------
   1    O  1  s      Cor( 1s)     2.00000     -19.11385
   2    O  1  s      Val( 2s)     1.74564      -0.75493
   3    O  1  s      Ryd( 4s)     0.00008       2.01780
   4    O  1  s      Ryd( 3s)     0.00002       1.14887
   5    O  1  s      Ryd( 5s)     0.00000      11.12588
   6    O  1  px     Val( 2p)     1.53517      -0.26832
   7    O  1  px     Ryd( 3p)     0.00195       0.94613
   8    O  1  px     Ryd( 4p)     0.00004       2.58957
   9    O  1  px     Ryd( 5p)     0.00001       3.26337
  10    O  1  py     Val( 2p)     1.72366      -0.28251
  11    O  1  py     Ryd( 3p)     0.00058       0.76714
  12    O  1  py     Ryd( 4p)     0.00019       2.18337
  13    O  1  py     Ryd( 5p)     0.00001       3.10551
  14    O  1  pz     Val( 2p)     1.93372      -0.29141
  15    O  1  pz     Ryd( 3p)     0.00131       0.75292
  16    O  1  pz     Ryd( 4p)     0.00001       2.06559
  17    O  1  pz     Ryd( 5p)     0.00001       2.48521
  18    O  1  dxy    Ryd( 3d)     0.00599       1.93113
  19    O  1  dxy    Ryd( 4d)     0.00000       2.45123
  20    O  1  dxy    Ryd( 5d)     0.00000       6.28486
  21    O  1  dxz    Ryd( 3d)     0.00094       1.37985
  22    O  1  dxz    Ryd( 4d)     0.00002       1.87926
  23    O  1  dxz    Ryd( 5d)     0.00000       6.66450
  24    O  1  dyz    Ryd( 3d)     0.00494       1.39969
  25    O  1  dyz    Ryd( 4d)     0.00001       1.79504
  26    O  1  dyz    Ryd( 5d)     0.00000       6.45908
  27    O  1  dx2y2  Ryd( 3d)     0.00433       1.60956
  28    O  1  dx2y2  Ryd( 4d)     0.00003       2.17779
  29    O  1  dx2y2  Ryd( 5d)     0.00000       6.32363
  30    O  1  dz2    Ryd( 3d)     0.00319       1.49885
  31    O  1  dz2    Ryd( 4d)     0.00002       2.01254
  32    O  1  dz2    Ryd( 5d)     0.00000       6.90900
  33    O  1  f(0)   Ryd( 4f)     0.00034       2.66254
  34    O  1  f(0)   Ryd( 5f)     0.00000       6.04160
  35    O  1  f(c1)  Ryd( 4f)     0.00037       2.78322
  36    O  1  f(c1)  Ryd( 5f)     0.00000       6.08521
  37    O  1  f(s1)  Ryd( 4f)     0.00023       2.53102
  38    O  1  f(s1)  Ryd( 5f)     0.00000       6.05140
  39    O  1  f(c2)  Ryd( 4f)     0.00011       2.68091
  40    O  1  f(c2)  Ryd( 5f)     0.00000       6.03947
  41    O  1  f(s2)  Ryd( 4f)     0.00012       2.84724
  42    O  1  f(s2)  Ryd( 5f)     0.00000       6.27418
  43    O  1  f(c3)  Ryd( 4f)     0.00008       3.11917
  44    O  1  f(c3)  Ryd( 5f)     0.00000       6.44451
  45    O  1  f(s3)  Ryd( 4f)     0.00008       3.20512
  46    O  1  f(s3)  Ryd( 5f)     0.00000       6.42677

  47    H  2  s      Val( 1s)     0.50753       0.16486
  48    H  2  s      Ryd( 4s)     0.00072       1.82723
  49    H  2  s      Ryd( 3s)     0.00005       1.44693
  50    H  2  s      Ryd( 2s)     0.00001       0.50145
  51    H  2  px     Ryd( 2p)     0.00012       1.60570
  52    H  2  px     Ryd( 4p)     0.00026       4.21504
  53    H  2  px     Ryd( 3p)     0.00007       2.71706
  54    H  2  py     Ryd( 2p)     0.00082       1.14308
  55    H  2  py     Ryd( 4p)     0.00025       3.76201
  56    H  2  py     Ryd( 3p)     0.00003       2.52535
  57    H  2  pz     Ryd( 2p)     0.00093       1.08060
  58    H  2  pz     Ryd( 4p)     0.00012       3.52183
  59    H  2  pz     Ryd( 3p)     0.00002       2.36016
  60    H  2  dxy    Ryd( 3d)     0.00026       1.52882
  61    H  2  dxy    Ryd( 4d)     0.00001       4.58462
  62    H  2  dxz    Ryd( 3d)     0.00050       1.41119
  63    H  2  dxz    Ryd( 4d)     0.00001       4.46598
  64    H  2  dyz    Ryd( 3d)     0.00046       0.97348
  65    H  2  dyz    Ryd( 4d)     0.00000       3.97937
  66    H  2  dx2y2  Ryd( 3d)     0.00060       1.62455
  67    H  2  dx2y2  Ryd( 4d)     0.00002       4.68821
  68    H  2  dz2    Ryd( 3d)     0.00019       1.16975
  69    H  2  dz2    Ryd( 4d)     0.00001       4.14523

  70    H  3  s      Val( 1s)     0.53507       0.15483
  71    H  3  s      Ryd( 4s)     0.00018       2.04962
  72    H  3  s      Ryd( 3s)     0.00014       1.09239
  73    H  3  s      Ryd( 2s)     0.00000       0.48661
  74    H  3  px     Ryd( 2p)     0.00016       1.65692
  75    H  3  px     Ryd( 4p)     0.00013       3.45663
  76    H  3  px     Ryd( 3p)     0.00003       2.70230
  77    H  3  py     Ryd( 2p)     0.00059       1.61336
  78    H  3  py     Ryd( 4p)     0.00037       3.62967
  79    H  3  py     Ryd( 3p)     0.00003       2.61474
  80    H  3  pz     Ryd( 2p)     0.00092       1.46863
  81    H  3  pz     Ryd( 4p)     0.00007       3.24296
  82    H  3  pz     Ryd( 3p)     0.00000       2.45319
  83    H  3  dxy    Ryd( 3d)     0.00018       1.16367
  84    H  3  dxy    Ryd( 4d)     0.00001       4.35744
  85    H  3  dxz    Ryd( 3d)     0.00005       1.02543
  86    H  3  dxz    Ryd( 4d)     0.00000       4.12422
  87    H  3  dyz    Ryd( 3d)     0.00034       1.01763
  88    H  3  dyz    Ryd( 4d)     0.00001       4.20467
  89    H  3  dx2y2  Ryd( 3d)     0.00017       1.02912
  90    H  3  dx2y2  Ryd( 4d)     0.00000       4.42318
  91    H  3  dz2    Ryd( 3d)     0.00023       1.00693
  92    H  3  dz2    Ryd( 4d)     0.00001       4.11222

  93    O  4  s      Cor( 1s)     2.00000     -19.16218
  94    O  4  s      Val( 2s)     1.75158      -0.80710
  95    O  4  s      Ryd( 3s)     0.00018       1.44557
  96    O  4  s      Ryd( 4s)     0.00007       1.77391
  97    O  4  s      Ryd( 5s)     0.00000      10.21053
  98    O  4  px     Val( 2p)     1.77413      -0.32952
  99    O  4  px     Ryd( 3p)     0.00161       0.97141
 100    O  4  px     Ryd( 5p)     0.00002       3.26525
 101    O  4  px     Ryd( 4p)     0.00001       1.65588
 102    O  4  py     Val( 2p)     1.58718      -0.31626
 103    O  4  py     Ryd( 3p)     0.00222       0.81099
 104    O  4  py     Ryd( 5p)     0.00003       3.04050
 105    O  4  py     Ryd( 4p)     0.00000       2.72130
 106    O  4  pz     Val( 2p)     1.81012      -0.33277
 107    O  4  pz     Ryd( 3p)     0.00042       0.70912
 108    O  4  pz     Ryd( 5p)     0.00014       2.67022
 109    O  4  pz     Ryd( 4p)     0.00001       2.25849
 110    O  4  dxy    Ryd( 3d)     0.00189       1.66572
 111    O  4  dxy    Ryd( 4d)     0.00002       2.21605
 112    O  4  dxy    Ryd( 5d)     0.00000       7.11128
 113    O  4  dxz    Ryd( 3d)     0.00480       1.54985
 114    O  4  dxz    Ryd( 4d)     0.00002       2.03834
 115    O  4  dxz    Ryd( 5d)     0.00000       6.72752
 116    O  4  dyz    Ryd( 3d)     0.00509       1.78368
 117    O  4  dyz    Ryd( 4d)     0.00001       1.83341
 118    O  4  dyz    Ryd( 5d)     0.00000       7.00009
 119    O  4  dx2y2  Ryd( 3d)     0.00143       1.62764
 120    O  4  dx2y2  Ryd( 4d)     0.00001       1.82820
 121    O  4  dx2y2  Ryd( 5d)     0.00000       6.82780
 122    O  4  dz2    Ryd( 3d)     0.00432       1.24236
 123    O  4  dz2    Ryd( 4d)     0.00003       1.56721
 124    O  4  dz2    Ryd( 5d)     0.00000       6.76700
 125    O  4  f(0)   Ryd( 4f)     0.00015       2.98263
 126    O  4  f(0)   Ryd( 5f)     0.00000       6.13398
 127    O  4  f(c1)  Ryd( 4f)     0.00016       2.71777
 128    O  4  f(c1)  Ryd( 5f)     0.00000       5.96476
 129    O  4  f(s1)  Ryd( 4f)     0.00009       2.75832
 130    O  4  f(s1)  Ryd( 5f)     0.00000       5.90039
 131    O  4  f(c2)  Ryd( 4f)     0.00014       3.18978
 132    O  4  f(c2)  Ryd( 5f)     0.00000       6.19301
 133    O  4  f(s2)  Ryd( 4f)     0.00035       3.06498
 134    O  4  f(s2)  Ryd( 5f)     0.00000       6.30848
 135    O  4  f(c3)  Ryd( 4f)     0.00014       2.89405
 136    O  4  f(c3)  Ryd( 5f)     0.00000       6.06877
 137    O  4  f(s3)  Ryd( 4f)     0.00031       3.15148
 138    O  4  f(s3)  Ryd( 5f)     0.00000       6.35624

 139    H  5  s      Val( 1s)     0.51304       0.11107
 140    H  5  s      Ryd( 3s)     0.00048       1.11326
 141    H  5  s      Ryd( 4s)     0.00026       1.73584
 142    H  5  s      Ryd( 2s)     0.00001       0.57784
 143    H  5  px     Ryd( 2p)     0.00045       1.75021
 144    H  5  px     Ryd( 4p)     0.00011       2.99033
 145    H  5  px     Ryd( 3p)     0.00002       2.40564
 146    H  5  py     Ryd( 2p)     0.00024       1.99706
 147    H  5  py     Ryd( 4p)     0.00017       3.17161
 148    H  5  py     Ryd( 3p)     0.00004       2.26020
 149    H  5  pz     Ryd( 2p)     0.00052       1.76713
 150    H  5  pz     Ryd( 4p)     0.00024       3.01332
 151    H  5  pz     Ryd( 3p)     0.00003       2.27249
 152    H  5  dxy    Ryd( 3d)     0.00007       1.02121
 153    H  5  dxy    Ryd( 4d)     0.00000       4.51519
 154    H  5  dxz    Ryd( 3d)     0.00022       0.95912
 155    H  5  dxz    Ryd( 4d)     0.00000       4.10604
 156    H  5  dyz    Ryd( 3d)     0.00011       1.15692
 157    H  5  dyz    Ryd( 4d)     0.00001       4.45829
 158    H  5  dx2y2  Ryd( 3d)     0.00005       1.15674
 159    H  5  dx2y2  Ryd( 4d)     0.00001       4.37252
 160    H  5  dz2    Ryd( 3d)     0.00030       0.95899
 161    H  5  dz2    Ryd( 4d)     0.00000       4.34922

 162    H  6  s      Val( 1s)     0.51870       0.12745
 163    H  6  s      Ryd( 4s)     0.00024       2.05523
 164    H  6  s      Ryd( 3s)     0.00010       0.90742
 165    H  6  s      Ryd( 2s)     0.00002       0.25742
 166    H  6  px     Ryd( 2p)     0.00044       1.71475
 167    H  6  px     Ryd( 4p)     0.00023       3.47544
 168    H  6  px     Ryd( 3p)     0.00002       2.32766
 169    H  6  py     Ryd( 2p)     0.00016       1.69481
 170    H  6  py     Ryd( 4p)     0.00019       3.43673
 171    H  6  py     Ryd( 3p)     0.00001       2.28386
 172    H  6  pz     Ryd( 2p)     0.00058       1.58937
 173    H  6  pz     Ryd( 4p)     0.00027       3.39980
 174    H  6  pz     Ryd( 3p)     0.00004       2.34959
 175    H  6  dxy    Ryd( 3d)     0.00012       1.08466
 176    H  6  dxy    Ryd( 4d)     0.00001       4.34449
 177    H  6  dxz    Ryd( 3d)     0.00026       1.04220
 178    H  6  dxz    Ryd( 4d)     0.00001       4.24164
 179    H  6  dyz    Ryd( 3d)     0.00015       0.98305
 180    H  6  dyz    Ryd( 4d)     0.00001       4.18667
 181    H  6  dx2y2  Ryd( 3d)     0.00016       0.96471
 182    H  6  dx2y2  Ryd( 4d)     0.00000       4.39003
 183    H  6  dz2    Ryd( 3d)     0.00030       0.92733
 184    H  6  dz2    Ryd( 4d)     0.00000       4.23216


 Summary of Natural Population Analysis:

                                     Natural Population
             Natural    ---------------------------------------------
  Atom No    Charge        Core      Valence    Rydberg      Total
 --------------------------------------------------------------------
    O  1   -0.96320      2.00000     6.93819    0.02501     8.96320
    H  2    0.48701      0.00000     0.50753    0.00546     0.51299
    H  3    0.46131      0.00000     0.53507    0.00363     0.53869
    O  4   -0.94669      2.00000     6.92301    0.02368     8.94669
    H  5    0.48360      0.00000     0.51304    0.00336     0.51640
    H  6    0.47797      0.00000     0.51870    0.00334     0.52203
 ====================================================================
 * Total *  0.00000      3.99999    15.93554    0.06446    20.00000

                                 Natural Population
 ---------------------------------------------------------
   Core                       3.99999 ( 99.9998% of    4)
   Valence                   15.93554 ( 99.5971% of   16)
   Natural Minimal Basis     19.93554 ( 99.6777% of   20)
   Natural Rydberg Basis      0.06446 (  0.3223% of   20)
 ---------------------------------------------------------

    Atom No         Natural Electron Configuration
 ----------------------------------------------------------------------------
      O  1      [core]2s( 1.75)2p( 5.19)3d( 0.02)
      H  2            1s( 0.51)
      H  3            1s( 0.54)
      O  4      [core]2s( 1.75)2p( 5.17)3d( 0.02)
      H  5            1s( 0.51)
      H  6            1s( 0.52)


 NATURAL BOND ORBITAL ANALYSIS:

 User-requested molecular units:
   1. <O1,H2,H3>
   2. <O4,H5,H6>

                            Occupancies       Lewis Structure    Low   High
         Max    Occ     -------------------  -----------------   occ   occ
  Cycle  Ctr   Thresh    Lewis   non-Lewis     CR  BD  nC  LP    (L)   (NL)
 ============================================================================
    1     2     1.90    19.97094   0.02906      2   4   0   4     0      0
    2     2     1.50    19.47325   0.52675      2   3   0   5     0      1
    3     2     1.90    19.97094   0.02906      2   4   0   4     0      0
 ----------------------------------------------------------------------------

 Structure accepted: No low occupancy Lewis orbitals

 -------------------------------------------------------
   Core                      3.99999 (100.000% of   4)
   Valence Lewis            15.97095 ( 99.818% of  16)
  ==================      =============================
   Total Lewis              19.97094 ( 99.855% of  20)
  -----------------------------------------------------
   Valence non-Lewis         0.01518 (  0.076% of  20)
   Rydberg non-Lewis         0.01388 (  0.069% of  20)
  ==================      =============================
   Total non-Lewis           0.02906 (  0.145% of  20)
 -------------------------------------------------------


     (Occupancy)   Bond orbital / Coefficients / Hybrids
 ------------------ Lewis ------------------------------------------------------
   1. (2.00000) CR ( 1) O  1            s(100.00%)
                                         1.0000  0.0000  0.0000  0.0000  0.0000
                                         0.0000  0.0000  0.0000  0.0000  0.0000
                                         0.0000  0.0000  0.0000  0.0000  0.0000
                                         0.0000  0.0000  0.0000  0.0000  0.0000
                                         0.0000  0.0000  0.0000  0.0000  0.0000
                                         0.0000  0.0000  0.0000  0.0000  0.0000
                                         0.0000  0.0000  0.0000  0.0000  0.0000
                                         0.0000  0.0000  0.0000  0.0000  0.0000
                                         0.0000  0.0000  0.0000  0.0000  0.0000
                                         0.0000
   2. (2.00000) CR ( 1) O  4            s(100.00%)
                                         1.0000  0.0000  0.0000  0.0000  0.0000
                                         0.0000  0.0000  0.0000  0.0000  0.0000
                                         0.0000  0.0000  0.0000  0.0000  0.0000
                                         0.0000  0.0000  0.0000  0.0000  0.0000
                                         0.0000  0.0000  0.0000  0.0000  0.0000
                                         0.0000  0.0000  0.0000  0.0000  0.0000
                                         0.0000  0.0000  0.0000  0.0000  0.0000
                                         0.0000  0.0000  0.0000  0.0000  0.0000
                                         0.0000  0.0000  0.0000  0.0000  0.0000
                                         0.0000
   3. (1.99799) LP ( 1) O  1            s( 50.63%)p 0.97( 49.20%)d 0.00(  0.16%)
                                                  f 0.00(  0.00%)
                                         0.0000  0.7116  0.0021  0.0010  0.0001
                                         0.2326  0.0008 -0.0005 -0.0006  0.6440
                                         0.0104 -0.0049 -0.0017 -0.1518 -0.0027
                                         0.0011  0.0005 -0.0215 -0.0004  0.0007
                                         0.0089  0.0005 -0.0009  0.0098 -0.0011
                                         0.0004  0.0296 -0.0009 -0.0008  0.0097
                                        -0.0006  0.0011  0.0022  0.0000 -0.0022
                                         0.0000 -0.0034  0.0001  0.0023  0.0000
                                         0.0005  0.0001 -0.0007  0.0002 -0.0015
                                         0.0001
   4. (1.99665) LP ( 2) O  1            s(  0.11%)p99.99( 99.62%)d 2.24(  0.24%)
                                                  f 0.29(  0.03%)
                                         0.0000  0.0328  0.0017 -0.0005 -0.0003
                                        -0.2348 -0.0067 -0.0004 -0.0007  0.2684
                                         0.0072 -0.0001  0.0002  0.9319  0.0231
                                         0.0011  0.0011  0.0071 -0.0004  0.0001
                                        -0.0148  0.0002  0.0002 -0.0407  0.0009
                                         0.0000  0.0157 -0.0003 -0.0002  0.0156
                                        -0.0013 -0.0001 -0.0102  0.0001  0.0113
                                         0.0001 -0.0080  0.0000  0.0036  0.0002
                                         0.0001  0.0000 -0.0004  0.0000  0.0023
                                         0.0001
   5. (1.99773) LP ( 1) O  4            s( 27.86%)p 2.58( 71.93%)d 0.01(  0.20%)
                                                  f 0.00(  0.02%)
                                         0.0000  0.5278 -0.0046  0.0022  0.0007
                                        -0.2214 -0.0078  0.0016  0.0014  0.1754
                                         0.0046  0.0005 -0.0006 -0.7995 -0.0121
                                         0.0034 -0.0008  0.0002 -0.0007 -0.0010
                                         0.0040  0.0002  0.0006  0.0015 -0.0009
                                        -0.0003  0.0001  0.0005  0.0004 -0.0444
                                         0.0015  0.0009  0.0000  0.0000  0.0069
                                         0.0000 -0.0044  0.0001  0.0020  0.0003
                                        -0.0073 -0.0001 -0.0011 -0.0002 -0.0065
                                         0.0001
   6. (1.98348) LP ( 2) O  4            s( 24.77%)p 3.03( 75.06%)d 0.01(  0.14%)
                                                  f 0.00(  0.02%)
                                         0.0000  0.4977  0.0062  0.0022 -0.0002
                                         0.7399  0.0223 -0.0003 -0.0002 -0.4495
                                        -0.0094  0.0003 -0.0005  0.0243  0.0014
                                         0.0046 -0.0008  0.0188  0.0016 -0.0007
                                         0.0264 -0.0017  0.0001 -0.0154  0.0008
                                        -0.0001 -0.0077 -0.0010 -0.0002  0.0079
                                         0.0003  0.0007  0.0027  0.0001 -0.0027
                                         0.0003  0.0012 -0.0001 -0.0049  0.0000
                                         0.0092 -0.0002  0.0035 -0.0004  0.0070
                                         0.0003
   7. (1.99882) BD ( 1) O  1- H  2
               ( 75.12%)   0.8667* O  1 s( 25.81%)p 2.86( 73.80%)d 0.01(  0.37%)
                                                  f 0.00(  0.02%)
                                         0.0000  0.5080  0.0009 -0.0013  0.0000
                                        -0.7924  0.0251 -0.0014 -0.0011 -0.3043
                                        -0.0014 -0.0086  0.0008 -0.1297  0.0068
                                         0.0012  0.0001  0.0481 -0.0006  0.0001
                                         0.0063  0.0021  0.0001  0.0015 -0.0008
                                         0.0001  0.0153  0.0034 -0.0002 -0.0334
                                        -0.0027 -0.0001  0.0028 -0.0003  0.0082
                                        -0.0004  0.0043 -0.0001 -0.0071 -0.0002
                                        -0.0009 -0.0004 -0.0064 -0.0009 -0.0022
                                         0.0004
               ( 24.88%)   0.4988* H  2 s( 99.89%)p 0.00(  0.09%)d 0.00(  0.02%)
                                         0.9994 -0.0015  0.0004  0.0003  0.0048
                                         0.0186  0.0101 -0.0151  0.0134  0.0048
                                         0.0047  0.0015  0.0010  0.0035  0.0034
                                         0.0085  0.0012 -0.0012  0.0009  0.0013
                                         0.0026 -0.0100 -0.0023
   8. (1.99880) BD ( 1) O  1- H  3
               ( 73.20%)   0.8556* O  1 s( 23.33%)p 3.27( 76.26%)d 0.02(  0.40%)
                                                  f 0.00(  0.02%)
                                         0.0000  0.4829 -0.0056 -0.0005 -0.0001
                                         0.5067 -0.0248 -0.0043  0.0003 -0.6457
                                         0.0120 -0.0026  0.0006  0.2967 -0.0101
                                         0.0000 -0.0007 -0.0319 -0.0009 -0.0005
                                         0.0137  0.0017  0.0003 -0.0314 -0.0002
                                        -0.0004 -0.0344  0.0029 -0.0001 -0.0238
                                        -0.0021 -0.0005 -0.0085  0.0004 -0.0024
                                         0.0005  0.0057 -0.0001 -0.0001  0.0002
                                        -0.0088  0.0001 -0.0031  0.0003 -0.0064
                                        -0.0009
               ( 26.80%)   0.5177* H  3 s( 99.86%)p 0.00(  0.10%)d 0.00(  0.04%)
                                         0.9993  0.0000 -0.0001  0.0000 -0.0067
                                         0.0079 -0.0056 -0.0153 -0.0232  0.0039
                                         0.0031  0.0084 -0.0020 -0.0118 -0.0049
                                         0.0083  0.0017 -0.0084 -0.0026 -0.0009
                                        -0.0018 -0.0093 -0.0013
   9. (1.99901) BD ( 1) O  4- H  5
               ( 74.31%)   0.8620* O  4 s( 23.28%)p 3.28( 76.35%)d 0.02(  0.35%)
                                                  f 0.00(  0.02%)
                                         0.0000  0.4825 -0.0006 -0.0020 -0.0004
                                         0.1114 -0.0108  0.0026  0.0001  0.7403
                                        -0.0273  0.0009  0.0000  0.4495 -0.0065
                                         0.0056  0.0007  0.0005  0.0004 -0.0001
                                        -0.0065 -0.0009  0.0004  0.0522  0.0012
                                         0.0002 -0.0258 -0.0010 -0.0004  0.0103
                                        -0.0027  0.0003 -0.0068  0.0001 -0.0059
                                        -0.0001  0.0000 -0.0005 -0.0064  0.0005
                                         0.0026  0.0007 -0.0066  0.0001 -0.0049
                                        -0.0005
               ( 25.69%)   0.5068* H  5 s( 99.89%)p 0.00(  0.07%)d 0.00(  0.03%)
                                         0.9995  0.0001 -0.0002  0.0000 -0.0046
                                        -0.0010 -0.0005 -0.0022 -0.0169 -0.0073
                                         0.0087 -0.0169 -0.0031  0.0044  0.0005
                                        -0.0046  0.0014  0.0125  0.0044 -0.0083
                                        -0.0038 -0.0041  0.0003
  10. (1.99846) BD ( 1) O  4- H  6
               ( 74.02%)   0.8604* O  4 s( 23.97%)p 3.16( 75.65%)d 0.02(  0.36%)
                                                  f 0.00(  0.02%)
                                         0.0000  0.4896 -0.0013 -0.0042 -0.0004
                                        -0.6224  0.0120 -0.0001  0.0012 -0.4621
                                         0.0243  0.0030 -0.0002  0.3935 -0.0034
                                         0.0033 -0.0001  0.0277  0.0014  0.0003
                                        -0.0469 -0.0015 -0.0001 -0.0199  0.0011
                                        -0.0006  0.0139  0.0011  0.0002  0.0069
                                        -0.0030  0.0002 -0.0066 -0.0003 -0.0003
                                         0.0001  0.0055  0.0004  0.0034 -0.0010
                                         0.0066 -0.0003  0.0054  0.0002 -0.0075
                                        -0.0002
               ( 25.98%)   0.5097* H  6 s( 99.84%)p 0.00(  0.11%)d 0.00(  0.04%)
                                         0.9992  0.0001 -0.0001  0.0001 -0.0086
                                        -0.0193  0.0048 -0.0023 -0.0127  0.0035
                                         0.0145  0.0165 -0.0018  0.0138  0.0043
                                        -0.0119 -0.0040 -0.0036 -0.0033  0.0018
                                         0.0018 -0.0044 -0.0010
 ---------------- non-Lewis ----------------------------------------------------
  11. (0.01442) BD*( 1) O  1- H  2
               ( 24.88%)   0.4988* O  1 s( 25.81%)p 2.86( 73.80%)d 0.01(  0.37%)
                                                  f 0.00(  0.02%)
                                         0.0000 -0.5080 -0.0009  0.0013  0.0000
                                         0.7924 -0.0251  0.0014  0.0011  0.3043
                                         0.0014  0.0086 -0.0008  0.1297 -0.0068
                                        -0.0012 -0.0001 -0.0481  0.0006 -0.0001
                                        -0.0063 -0.0021 -0.0001 -0.0015  0.0008
                                        -0.0001 -0.0153 -0.0034  0.0002  0.0334
                                         0.0027  0.0001 -0.0028  0.0003 -0.0082
                                         0.0004 -0.0043  0.0001  0.0071  0.0002
                                         0.0009  0.0004  0.0064  0.0009  0.0022
                                        -0.0004
               ( 75.12%)  -0.8667* H  2 s( 99.89%)p 0.00(  0.09%)d 0.00(  0.02%)
                                        -0.9994  0.0015 -0.0004 -0.0003 -0.0048
                                        -0.0186 -0.0101  0.0151 -0.0134 -0.0048
                                        -0.0047 -0.0015 -0.0010 -0.0035 -0.0034
                                        -0.0085 -0.0012  0.0012 -0.0009 -0.0013
                                        -0.0026  0.0100  0.0023
  12. (0.00021) BD*( 1) O  1- H  3
               ( 26.80%)   0.5177* O  1 s( 23.33%)p 3.27( 76.26%)d 0.02(  0.40%)
                                                  f 0.00(  0.02%)
                                         0.0000 -0.4829  0.0056  0.0005  0.0001
                                        -0.5067  0.0248  0.0043 -0.0003  0.6457
                                        -0.0120  0.0026 -0.0006 -0.2967  0.0101
                                         0.0000  0.0007  0.0319  0.0009  0.0005
                                        -0.0137 -0.0017 -0.0003  0.0314  0.0002
                                         0.0004  0.0344 -0.0029  0.0001  0.0238
                                         0.0021  0.0005  0.0085 -0.0004  0.0024
                                        -0.0005 -0.0057  0.0001  0.0001 -0.0002
                                         0.0088 -0.0001  0.0031 -0.0003  0.0064
                                         0.0009
               ( 73.20%)  -0.8556* H  3 s( 99.86%)p 0.00(  0.10%)d 0.00(  0.04%)
                                        -0.9993  0.0000  0.0001  0.0000  0.0067
                                        -0.0079  0.0056  0.0153  0.0232 -0.0039
                                        -0.0031 -0.0084  0.0020  0.0118  0.0049
                                        -0.0083 -0.0017  0.0084  0.0026  0.0009
                                         0.0018  0.0093  0.0013
  13. (0.00009) BD*( 1) O  4- H  5
               ( 25.69%)   0.5068* O  4 s( 23.28%)p 3.28( 76.35%)d 0.02(  0.35%)
                                                  f 0.00(  0.02%)
               ( 74.31%)  -0.8620* H  5 s( 99.89%)p 0.00(  0.07%)d 0.00(  0.03%)
  14. (0.00046) BD*( 1) O  4- H  6
               ( 25.98%)   0.5097* O  4 s( 23.97%)p 3.16( 75.65%)d 0.02(  0.36%)
                                                  f 0.00(  0.02%)
                                         0.0000 -0.4896  0.0013  0.0042  0.0004
                                         0.6224 -0.0120  0.0001 -0.0012  0.4621
                                        -0.0243 -0.0030  0.0002 -0.3935  0.0034
                                        -0.0033  0.0001 -0.0277 -0.0014 -0.0003
                                         0.0469  0.0015  0.0001  0.0199 -0.0011
                                         0.0006 -0.0139 -0.0011 -0.0002 -0.0069
                                         0.0030 -0.0002  0.0066  0.0003  0.0003
                                        -0.0001 -0.0055 -0.0004 -0.0034  0.0010
                                        -0.0066  0.0003 -0.0054 -0.0002  0.0075
                                         0.0002
               ( 74.02%)  -0.8604* H  6 s( 99.84%)p 0.00(  0.11%)d 0.00(  0.04%)
                                        -0.9992 -0.0001  0.0001 -0.0001  0.0086
                                         0.0193 -0.0048  0.0023  0.0127 -0.0035
                                        -0.0145 -0.0165  0.0018 -0.0138 -0.0043
                                         0.0119  0.0040  0.0036  0.0033 -0.0018
                                        -0.0018  0.0044  0.0010
  15. (0.00011) RY ( 1) O  1            s( 18.61%)p 3.86( 71.83%)d 0.46(  8.47%)
                                                  f 0.06(  1.08%)
                                         0.0000 -0.0039  0.3526 -0.2486  0.0058
                                        -0.0162 -0.3671  0.1404 -0.0751  0.0061
                                         0.5880 -0.3728  0.0695 -0.0055 -0.2311
                                         0.1168 -0.0354  0.1133 -0.0398 -0.0116
                                         0.0120  0.0292  0.0041  0.0497  0.0146
                                        -0.0043 -0.2102  0.0053 -0.0044  0.1311
                                         0.0710 -0.0044  0.0256  0.0122  0.0571
                                        -0.0302  0.0232 -0.0056  0.0207 -0.0020
                                         0.0040 -0.0230  0.0603  0.0238  0.0045
                                        -0.0054
  16. (0.00004) RY ( 2) O  1            s( 20.59%)p 1.40( 28.74%)d 2.17( 44.66%)
                                                  f 0.29(  6.00%)
  17. (0.00003) RY ( 3) O  1            s(  4.22%)p15.33( 64.62%)d 6.56( 27.66%)
                                                  f 0.83(  3.50%)
  18. (0.00001) RY ( 4) O  1            s(  7.91%)p 3.65( 28.83%)d 7.00( 55.34%)
                                                  f 1.00(  7.93%)
  19. (0.00000) RY ( 5) O  1            s(  6.18%)p11.65( 72.00%)d 2.27( 14.01%)
                                                  f 1.26(  7.81%)
  20. (0.00000) RY ( 6) O  1            s(  9.88%)p 3.20( 31.56%)d 3.55( 35.07%)
                                                  f 2.38( 23.48%)
  21. (0.00000) RY ( 7) O  1            s( 51.21%)p 0.41( 21.15%)d 0.37( 19.09%)
                                                  f 0.17(  8.55%)
  22. (0.00000) RY ( 8) O  1            s( 38.05%)p 0.44( 16.82%)d 1.05( 40.08%)
                                                  f 0.13(  5.05%)
  23. (0.00000) RY ( 9) O  1            s( 37.48%)p 0.06(  2.29%)d 1.47( 55.15%)
                                                  f 0.14(  5.08%)
  24. (0.00000) RY (10) O  1            s( 16.53%)p 1.86( 30.80%)d 2.42( 40.09%)
                                                  f 0.76( 12.58%)
  25. (0.00000) RY (11) O  1            s( 16.77%)p 1.16( 19.49%)d 2.92( 48.94%)
                                                  f 0.88( 14.80%)
  26. (0.00000) RY (12) O  1            s( 12.86%)p 1.89( 24.29%)d 4.01( 51.51%)
                                                  f 0.88( 11.34%)
  27. (0.00000) RY (13) O  1            s(  3.53%)p 4.32( 15.27%)d18.37( 64.93%)
                                                  f 4.60( 16.27%)
  28. (0.00000) RY (14) O  1            s(  2.73%)p 6.27( 17.10%)d25.50( 69.51%)
                                                  f 3.91( 10.66%)
  29. (0.00000) RY (15) O  1            s( 16.44%)p 2.59( 42.57%)d 1.42( 23.32%)
                                                  f 1.07( 17.67%)
  30. (0.00000) RY (16) O  1            s(  4.42%)p 2.77( 12.25%)d10.89( 48.09%)
                                                  f 7.98( 35.25%)
  31. (0.00000) RY (17) O  1            s(  3.89%)p 1.21(  4.71%)d15.68( 61.05%)
                                                  f 7.79( 30.34%)
  32. (0.00000) RY (18) O  1            s(  3.04%)p 4.90( 14.88%)d12.00( 36.46%)
                                                  f15.02( 45.62%)
  33. (0.00000) RY (19) O  1            s(  4.78%)p 7.12( 34.01%)d 7.56( 36.13%)
                                                  f 5.25( 25.09%)
  34. (0.00000) RY (20) O  1            s(  0.29%)p62.95( 18.07%)d99.99( 47.31%)
                                                  f99.99( 34.34%)
  35. (0.00000) RY (21) O  1            s(  4.64%)p 8.74( 40.54%)d 8.43( 39.06%)
                                                  f 3.40( 15.77%)
  36. (0.00000) RY (22) O  1            s(  1.18%)p 5.48(  6.47%)d49.87( 58.79%)
                                                  f28.48( 33.57%)
  37. (0.00000) RY (23) O  1            s(  2.16%)p15.62( 33.80%)d12.22( 26.45%)
                                                  f17.36( 37.59%)
  38. (0.00000) RY (24) O  1            s(  2.42%)p 4.28( 10.34%)d13.00( 31.43%)
                                                  f23.09( 55.81%)
  39. (0.00000) RY (25) O  1            s(  1.34%)p14.10( 18.87%)d20.95( 28.04%)
                                                  f38.66( 51.75%)
  40. (0.00000) RY (26) O  1            s(  0.12%)p68.95(  8.36%)d99.99( 22.32%)
                                                  f99.99( 69.20%)
  41. (0.00000) RY (27) O  1            s(  2.25%)p13.13( 29.57%)d12.36( 27.85%)
                                                  f17.91( 40.33%)
  42. (0.00000) RY (28) O  1            s(  0.18%)p68.78( 12.34%)d99.99( 57.08%)
                                                  f99.99( 30.40%)
  43. (0.00000) RY (29) O  1            s(  2.94%)p 7.95( 23.38%)d 9.93( 29.21%)
                                                  f15.12( 44.47%)
  44. (0.00000) RY (30) O  1            s(  0.07%)p99.99(  9.03%)d99.99( 29.84%)
                                                  f99.99( 61.05%)
  45. (0.00000) RY (31) O  1            s(  0.38%)p65.57( 24.62%)d83.95( 31.53%)
                                                  f99.99( 43.47%)
  46. (0.00000) RY (32) O  1            s(  0.32%)p99.99( 39.24%)d65.31( 21.12%)
                                                  f99.99( 39.31%)
  47. (0.00000) RY (33) O  1            s(  0.64%)p27.72( 17.73%)d19.06( 12.20%)
                                                  f99.99( 69.43%)
  48. (0.00000) RY (34) O  1            s(  0.54%)p24.07( 12.96%)d75.43( 40.61%)
                                                  f85.25( 45.90%)
  49. (0.00000) RY (35) O  1            s(  0.63%)p18.57( 11.79%)d82.43( 52.33%)
                                                  f55.52( 35.25%)
  50. (0.00000) RY (36) O  1            s(  0.22%)p30.29(  6.66%)d99.99( 45.56%)
                                                  f99.99( 47.56%)
  51. (0.00000) RY (37) O  1            s(  0.17%)p73.83( 12.79%)d99.99( 43.83%)
                                                  f99.99( 43.21%)
  52. (0.00000) RY (38) O  1            s(  0.18%)p32.14(  5.69%)d99.99( 25.60%)
                                                  f99.99( 68.54%)
  53. (0.00000) RY (39) O  1            s(  0.26%)p 9.17(  2.34%)d93.54( 23.91%)
                                                  f99.99( 73.49%)
  54. (0.00000) RY (40) O  1            s(  0.04%)p61.92(  2.26%)d99.99( 12.36%)
                                                  f99.99( 85.35%)
  55. (0.00000) RY (41) O  1            s(  0.05%)p23.01(  1.05%)d99.99( 12.87%)
                                                  f99.99( 86.04%)
  56. (0.00173) RY ( 1) H  2            s(  0.58%)p97.38( 56.67%)d73.45( 42.75%)
                                        -0.0042  0.0700 -0.0023 -0.0300  0.0333
                                         0.1380 -0.0495 -0.1369 -0.0613  0.0157
                                        -0.7064 -0.1456  0.0346  0.0121  0.0013
                                         0.4768  0.0086  0.3950 -0.0009 -0.1810
                                        -0.0194 -0.1022  0.0166
  57. (0.00141) RY ( 2) H  2            s( 44.11%)p 1.11( 48.91%)d 0.16(  6.99%)
                                         0.0149  0.6632 -0.0133  0.0287 -0.1731
                                         0.0437  0.0293  0.6175 -0.1934  0.0711
                                        -0.1483  0.0990 -0.0268 -0.1908  0.0025
                                        -0.0399 -0.0083 -0.1191 -0.0017 -0.0870
                                        -0.0175  0.0982  0.0104
  58. (0.00102) RY ( 3) H  2            s(  8.05%)p 2.85( 22.90%)d 8.58( 69.05%)
                                        -0.0036  0.2417  0.1308 -0.0702  0.0945
                                        -0.0786  0.0407 -0.3409 -0.2725  0.0757
                                         0.1046  0.0712 -0.0080  0.2736  0.0530
                                        -0.0708 -0.0305 -0.2718  0.0133 -0.6954
                                        -0.0272 -0.2201  0.0030
  59. (0.00043) RY ( 4) H  2            s(  7.30%)p 5.19( 37.95%)d 7.50( 54.75%)
                                         0.0101  0.2061 -0.1629 -0.0628  0.1409
                                        -0.4222  0.0800 -0.1448  0.1008 -0.0735
                                         0.0700 -0.3405  0.1324 -0.3352 -0.0047
                                        -0.3263  0.0680  0.4276  0.0102 -0.2331
                                         0.1585  0.2341 -0.0828
  60. (0.00015) RY ( 5) H  2            s( 15.94%)p 0.56(  8.93%)d 4.71( 75.13%)
                                        -0.0005 -0.1838  0.3435  0.0874  0.1953
                                        -0.0605  0.0218 -0.0602 -0.0942  0.1009
                                         0.0934  0.0648 -0.1068 -0.7131  0.1388
                                         0.3567 -0.0590 -0.2239  0.0065 -0.1350
                                        -0.0481  0.1471 -0.0216
  61. (0.00014) RY ( 6) H  2            s(  1.79%)p26.99( 48.19%)d28.02( 50.03%)
                                        -0.0073  0.1076  0.0760  0.0214  0.4795
                                         0.2294  0.0873  0.0210 -0.1876  0.1056
                                        -0.0422 -0.3329  0.1797 -0.1642  0.0770
                                        -0.2662  0.1115 -0.0579  0.0374  0.2850
                                        -0.1229 -0.5272  0.0711
  62. (0.00005) RY ( 7) H  2            s( 20.91%)p 2.69( 56.13%)d 1.10( 22.96%)
  63. (0.00000) RY ( 8) H  2            s(  2.66%)p 8.42( 22.38%)d28.21( 74.96%)
  64. (0.00000) RY ( 9) H  2            s( 28.45%)p 1.30( 36.95%)d 1.22( 34.60%)
  65. (0.00000) RY (10) H  2            s( 11.36%)p 6.64( 75.45%)d 1.16( 13.20%)
  66. (0.00000) RY (11) H  2            s( 50.53%)p 0.55( 27.90%)d 0.43( 21.57%)
  67. (0.00000) RY (12) H  2            s( 31.11%)p 1.50( 46.55%)d 0.72( 22.34%)
  68. (0.00000) RY (13) H  2            s( 42.07%)p 0.99( 41.85%)d 0.38( 16.08%)
  69. (0.00000) RY (14) H  2            s(  7.29%)p 9.44( 68.76%)d 3.29( 23.96%)
  70. (0.00000) RY (15) H  2            s(  5.10%)p13.35( 68.08%)d 5.26( 26.82%)
  71. (0.00000) RY (16) H  2            s( 12.16%)p 5.35( 65.08%)d 1.87( 22.76%)
  72. (0.00000) RY (17) H  2            s(  8.37%)p 4.48( 37.54%)d 6.46( 54.09%)
  73. (0.00000) RY (18) H  2            s(  0.40%)p59.13( 23.63%)d99.99( 75.97%)
  74. (0.00000) RY (19) H  2            s(  1.06%)p46.30( 49.30%)d46.61( 49.63%)
  75. (0.00000) RY (20) H  2            s(  0.05%)p99.99( 16.12%)d99.99( 83.83%)
  76. (0.00000) RY (21) H  2            s(  0.71%)p54.94( 38.89%)d85.34( 60.40%)
  77. (0.00000) RY (22) H  2            s(  0.13%)p13.11(  1.75%)d99.99( 98.11%)
  78. (0.00151) RY ( 1) H  3            s(  0.03%)p99.99( 70.08%)d99.99( 29.88%)
                                         0.0003  0.0021  0.0146 -0.0103  0.2037
                                        -0.0355 -0.0046 -0.2013  0.0351 -0.0039
                                        -0.7708  0.1485  0.0091 -0.1535  0.0118
                                        -0.0820 -0.0092  0.4228 -0.0537 -0.0881
                                         0.0163 -0.2793  0.0256
  79. (0.00085) RY ( 2) H  3            s( 18.75%)p 2.84( 53.29%)d 1.49( 27.95%)
                                         0.0138  0.3452  0.2611  0.0016  0.2161
                                        -0.1979 -0.0798  0.6485 -0.0836 -0.0141
                                        -0.1100 -0.0266 -0.0102 -0.1301  0.0077
                                         0.0001  0.0339  0.1916 -0.0159  0.4009
                                         0.0248  0.2454 -0.0534
  80. (0.00047) RY ( 3) H  3            s( 32.72%)p 1.51( 49.28%)d 0.55( 18.01%)
                                        -0.0150 -0.4019  0.4068 -0.0016 -0.2069
                                        -0.3651 -0.1133 -0.3035 -0.3938 -0.2277
                                         0.0397  0.0254  0.0507 -0.3413  0.0061
                                         0.0594  0.0364  0.0288 -0.0191  0.1744
                                         0.0298  0.1517 -0.0561
  81. (0.00002) RY ( 4) H  3            s(  5.94%)p12.64( 75.06%)d 3.20( 19.00%)
  82. (0.00001) RY ( 5) H  3            s( 40.42%)p 0.94( 38.00%)d 0.53( 21.58%)
  83. (0.00001) RY ( 6) H  3            s( 46.08%)p 0.61( 28.18%)d 0.56( 25.74%)
  84. (0.00000) RY ( 7) H  3            s( 22.18%)p 1.54( 34.12%)d 1.97( 43.70%)
  85. (0.00000) RY ( 8) H  3            s(  9.79%)p 1.18( 11.55%)d 8.04( 78.66%)
  86. (0.00000) RY ( 9) H  3            s( 12.13%)p 3.47( 42.05%)d 3.78( 45.82%)
  87. (0.00000) RY (10) H  3            s( 25.62%)p 1.55( 39.78%)d 1.35( 34.61%)
  88. (0.00000) RY (11) H  3            s(  8.54%)p 9.08( 77.57%)d 1.63( 13.89%)
  89. (0.00000) RY (12) H  3            s( 43.29%)p 1.02( 44.31%)d 0.29( 12.40%)
  90. (0.00000) RY (13) H  3            s(  4.97%)p16.20( 80.46%)d 2.93( 14.58%)
  91. (0.00000) RY (14) H  3            s(  3.18%)p11.01( 35.00%)d19.44( 61.82%)
  92. (0.00000) RY (15) H  3            s(  3.33%)p15.41( 51.37%)d13.59( 45.30%)
  93. (0.00000) RY (16) H  3            s(  0.67%)p92.82( 62.08%)d55.69( 37.25%)
  94. (0.00000) RY (17) H  3            s(  9.47%)p 2.73( 25.89%)d 6.82( 64.63%)
  95. (0.00000) RY (18) H  3            s(  2.38%)p 8.14( 19.40%)d32.84( 78.22%)
  96. (0.00000) RY (19) H  3            s(  6.31%)p 1.87( 11.81%)d12.97( 81.88%)
  97. (0.00000) RY (20) H  3            s(  1.75%)p 9.57( 16.79%)d46.44( 81.45%)
  98. (0.00000) RY (21) H  3            s(  2.28%)p 4.95( 11.27%)d37.97( 86.45%)
  99. (0.00000) RY (22) H  3            s(  0.31%)p72.20( 22.54%)d99.99( 77.15%)
 100. (0.00025) RY ( 1) O  4            s( 15.90%)p 3.22( 51.19%)d 1.96( 31.09%)
                                                  f 0.11(  1.82%)
                                         0.0000 -0.0101  0.3070 -0.2444  0.0696
                                        -0.0198  0.6164  0.0644 -0.0521  0.0264
                                         0.2859 -0.0477  0.0276 -0.0070  0.0182
                                         0.1711  0.0980  0.3585 -0.1605  0.0185
                                         0.3329 -0.0590 -0.0201  0.0163 -0.0475
                                         0.0046 -0.1611  0.0094 -0.0359  0.1022
                                        -0.0130  0.0319  0.0109 -0.0135 -0.0569
                                         0.0354 -0.0056 -0.0036 -0.0345  0.0194
                                         0.0394 -0.0117  0.0790 -0.0176  0.0590
                                         0.0108
 101. (0.00014) RY ( 2) O  4            s(  1.70%)p21.49( 36.52%)d34.70( 58.96%)
                                                  f 1.66(  2.81%)
                                         0.0000  0.0135  0.0979  0.0719 -0.0453
                                        -0.0155 -0.0763 -0.1135  0.0502  0.0116
                                        -0.0803 -0.0076 -0.0058  0.0231  0.5750
                                        -0.0718  0.0273  0.0272  0.0282 -0.0177
                                         0.4946 -0.1641 -0.0150 -0.0742 -0.0448
                                         0.0334  0.4812 -0.0784  0.0142 -0.2623
                                         0.0109 -0.0229 -0.0783  0.0063  0.0113
                                        -0.0174  0.0009  0.0040  0.1226 -0.0238
                                         0.0749 -0.0007 -0.0067  0.0082 -0.0031
                                        -0.0134
 102. (0.00010) RY ( 3) O  4            s( 33.84%)p 0.96( 32.57%)d 0.91( 30.96%)
                                                  f 0.08(  2.63%)
 103. (0.00005) RY ( 4) O  4            s( 11.98%)p 4.12( 49.38%)d 3.06( 36.71%)
                                                  f 0.16(  1.92%)
 104. (0.00000) RY ( 5) O  4            s(  5.36%)p13.22( 70.92%)d 2.64( 14.15%)
                                                  f 1.78(  9.57%)
 105. (0.00000) RY ( 6) O  4            s(  2.06%)p20.42( 42.13%)d21.01( 43.34%)
                                                  f 6.04( 12.47%)
 106. (0.00000) RY ( 7) O  4            s( 21.50%)p 2.81( 60.31%)d 0.67( 14.42%)
                                                  f 0.18(  3.77%)
 107. (0.00000) RY ( 8) O  4            s( 41.70%)p 0.50( 20.65%)d 0.85( 35.45%)
                                                  f 0.05(  2.20%)
 108. (0.00000) RY ( 9) O  4            s( 17.09%)p 0.27(  4.63%)d 4.38( 74.85%)
                                                  f 0.20(  3.43%)
 109. (0.00000) RY (10) O  4            s( 36.83%)p 1.21( 44.53%)d 0.40( 14.81%)
                                                  f 0.10(  3.83%)
 110. (0.00000) RY (11) O  4            s(  8.28%)p 4.13( 34.23%)d 6.12( 50.71%)
                                                  f 0.82(  6.78%)
 111. (0.00000) RY (12) O  4            s(  3.83%)p 5.45( 20.83%)d17.98( 68.77%)
                                                  f 1.72(  6.57%)
 112. (0.00000) RY (13) O  4            s( 61.40%)p 0.26( 16.16%)d 0.27( 16.47%)
                                                  f 0.10(  5.97%)
 113. (0.00000) RY (14) O  4            s(  3.03%)p 9.04( 27.36%)d19.78( 59.90%)
                                                  f 3.21(  9.71%)
 114. (0.00000) RY (15) O  4            s(  7.00%)p 3.67( 25.67%)d 7.39( 51.70%)
                                                  f 2.24( 15.64%)
 115. (0.00000) RY (16) O  4            s(  1.10%)p15.75( 17.33%)d46.68( 51.38%)
                                                  f27.43( 30.19%)
 116. (0.00000) RY (17) O  4            s( 10.02%)p 3.72( 37.24%)d 4.24( 42.47%)
                                                  f 1.02( 10.26%)
 117. (0.00000) RY (18) O  4            s(  1.00%)p12.80( 12.83%)d55.14( 55.24%)
                                                  f30.88( 30.93%)
 118. (0.00000) RY (19) O  4            s(  3.86%)p 5.32( 20.57%)d15.52( 59.96%)
                                                  f 4.04( 15.61%)
 119. (0.00000) RY (20) O  4            s(  2.37%)p 4.02(  9.50%)d24.13( 57.09%)
                                                  f13.12( 31.04%)
 120. (0.00000) RY (21) O  4            s(  0.53%)p10.72(  5.67%)d99.99( 60.02%)
                                                  f63.90( 33.78%)
 121. (0.00000) RY (22) O  4            s(  0.06%)p99.99( 13.07%)d99.99( 42.04%)
                                                  f99.99( 44.83%)
 122. (0.00000) RY (23) O  4            s(  2.84%)p 2.00(  5.67%)d10.47( 29.70%)
                                                  f21.78( 61.79%)
 123. (0.00000) RY (24) O  4            s(  0.64%)p16.80( 10.68%)d55.01( 34.96%)
                                                  f84.56( 53.73%)
 124. (0.00000) RY (25) O  4            s(  0.13%)p99.99( 26.42%)d99.99( 26.40%)
                                                  f99.99( 47.05%)
 125. (0.00000) RY (26) O  4            s(  0.68%)p51.69( 35.27%)d34.25( 23.37%)
                                                  f59.60( 40.67%)
 126. (0.00000) RY (27) O  4            s(  0.44%)p44.72( 19.57%)d56.65( 24.78%)
                                                  f99.99( 55.21%)
 127. (0.00000) RY (28) O  4            s(  1.48%)p16.81( 24.81%)d32.40( 47.82%)
                                                  f17.55( 25.90%)
 128. (0.00000) RY (29) O  4            s(  0.72%)p 8.12(  5.88%)d57.90( 41.96%)
                                                  f70.95( 51.43%)
 129. (0.00000) RY (30) O  4            s(  0.29%)p28.35(  8.32%)d74.72( 21.92%)
                                                  f99.99( 69.47%)
 130. (0.00000) RY (31) O  4            s(  0.45%)p31.94( 14.36%)d54.52( 24.51%)
                                                  f99.99( 60.68%)
 131. (0.00000) RY (32) O  4            s(  0.30%)p95.19( 28.83%)d87.86( 26.61%)
                                                  f99.99( 44.26%)
 132. (0.00000) RY (33) O  4            s(  0.63%)p15.04(  9.40%)d53.38( 33.37%)
                                                  f90.54( 56.60%)
 133. (0.00000) RY (34) O  4            s(  0.18%)p39.50(  6.98%)d99.99( 33.93%)
                                                  f99.99( 58.92%)
 134. (0.00000) RY (35) O  4            s(  0.13%)p99.99( 17.63%)d99.99( 16.57%)
                                                  f99.99( 65.67%)
 135. (0.00000) RY (36) O  4            s(  0.05%)p41.32(  2.09%)d99.99(  8.85%)
                                                  f99.99( 89.01%)
 136. (0.00000) RY (37) O  4            s(  0.26%)p49.94( 13.19%)d54.09( 14.29%)
                                                  f99.99( 72.25%)
 137. (0.00000) RY (38) O  4            s(  0.12%)p26.05(  3.10%)d99.99( 19.33%)
                                                  f99.99( 77.45%)
 138. (0.00000) RY (39) O  4            s(  0.24%)p18.20(  4.38%)d99.99( 57.66%)
                                                  f99.99( 37.72%)
 139. (0.00000) RY (40) O  4            s(  0.04%)p99.99(  9.35%)d99.99( 32.28%)
                                                  f99.99( 58.32%)
 140. (0.00000) RY (41) O  4            s(  0.07%)p24.66(  1.79%)d99.99( 10.14%)
                                                  f99.99( 88.00%)
 141. (0.00117) RY ( 1) H  5            s( 18.50%)p 2.99( 55.34%)d 1.41( 26.16%)
                                        -0.0032  0.4266 -0.0350  0.0421  0.2076
                                         0.0437 -0.0253 -0.3418  0.0077 -0.0296
                                         0.6097  0.1178 -0.0656  0.1561 -0.0371
                                        -0.0119  0.0053  0.1132  0.0106  0.0550
                                         0.0150  0.4676 -0.0296
 142. (0.00093) RY ( 2) H  5            s( 27.05%)p 1.81( 48.94%)d 0.89( 24.00%)
                                        -0.0071  0.5143  0.0564 -0.0523 -0.6097
                                        -0.1442  0.0397  0.2633  0.0319  0.0224
                                         0.1280 -0.0629  0.0641 -0.1930 -0.0224
                                        -0.4162  0.0471  0.1246  0.0063 -0.0375
                                         0.0003 -0.0952  0.0287
 143. (0.00049) RY ( 3) H  5            s( 46.65%)p 0.91( 42.49%)d 0.23( 10.86%)
                                        -0.0061 -0.0351  0.6819 -0.0156 -0.1794
                                         0.3946 -0.0943 -0.1767  0.1431  0.0184
                                         0.1978 -0.3252  0.1765  0.0088  0.0387
                                         0.2564 -0.0332  0.0493  0.0329 -0.1136
                                        -0.0329 -0.1498  0.0155
 144. (0.00012) RY ( 4) H  5            s( 18.22%)p 4.23( 77.11%)d 0.26(  4.66%)
                                        -0.0049  0.2681  0.2507  0.2179  0.5007
                                        -0.2878  0.2631  0.4412 -0.2277  0.1877
                                         0.1139 -0.2597  0.0791  0.0278 -0.0136
                                         0.1122 -0.0242 -0.0014  0.0302  0.0095
                                        -0.0530 -0.1651  0.0375
 145. (0.00007) RY ( 5) H  5            s( 33.34%)p 1.00( 33.49%)d 0.99( 33.17%)
 146. (0.00002) RY ( 6) H  5            s( 36.95%)p 1.14( 42.31%)d 0.56( 20.74%)
 147. (0.00001) RY ( 7) H  5            s( 35.90%)p 0.39( 14.15%)d 1.39( 49.95%)
 148. (0.00000) RY ( 8) H  5            s(  4.44%)p 3.71( 16.45%)d17.82( 79.11%)
 149. (0.00000) RY ( 9) H  5            s(  3.71%)p16.70( 61.98%)d 9.25( 34.31%)
 150. (0.00000) RY (10) H  5            s( 34.61%)p 1.13( 39.21%)d 0.76( 26.18%)
 151. (0.00000) RY (11) H  5            s(  8.81%)p 6.97( 61.40%)d 3.38( 29.79%)
 152. (0.00000) RY (12) H  5            s(  4.10%)p15.05( 61.78%)d 8.31( 34.11%)
 153. (0.00000) RY (13) H  5            s(  5.27%)p14.85( 78.25%)d 3.13( 16.48%)
 154. (0.00000) RY (14) H  5            s(  3.78%)p11.12( 42.01%)d14.34( 54.21%)
 155. (0.00000) RY (15) H  5            s(  3.63%)p11.92( 43.26%)d14.64( 53.12%)
 156. (0.00000) RY (16) H  5            s(  2.91%)p16.28( 47.36%)d17.10( 49.73%)
 157. (0.00000) RY (17) H  5            s(  7.33%)p 8.45( 61.96%)d 4.19( 30.71%)
 158. (0.00000) RY (18) H  5            s(  1.61%)p14.78( 23.78%)d46.37( 74.61%)
 159. (0.00000) RY (19) H  5            s(  1.41%)p21.71( 30.60%)d48.24( 67.99%)
 160. (0.00000) RY (20) H  5            s(  0.13%)p41.45(  5.48%)d99.99( 94.39%)
 161. (0.00000) RY (21) H  5            s(  1.60%)p 4.69(  7.52%)d56.75( 90.88%)
 162. (0.00000) RY (22) H  5            s(  0.14%)p37.01(  5.06%)d99.99( 94.81%)
 163. (0.00123) RY ( 1) H  6            s(  1.17%)p52.65( 61.66%)d31.74( 37.17%)
                                         0.0011  0.0246  0.0905 -0.0540 -0.5136
                                         0.1482 -0.0243  0.2883 -0.1165 -0.0201
                                        -0.4549  0.1601  0.0244 -0.0927  0.0308
                                        -0.0319  0.0141  0.2501 -0.0201  0.3301
                                        -0.0255 -0.4311  0.0510
 164. (0.00073) RY ( 2) H  6            s( 14.88%)p 3.13( 46.51%)d 2.60( 38.61%)
                                         0.0118  0.2266  0.3104  0.0306  0.3107
                                        -0.0612  0.0393 -0.2069  0.2308  0.0660
                                        -0.4877  0.1560  0.0243  0.0414  0.0346
                                         0.4958 -0.0315 -0.2221  0.0573 -0.1540
                                        -0.0254 -0.2432 -0.0175
 165. (0.00051) RY ( 3) H  6            s( 41.73%)p 1.11( 46.36%)d 0.29( 11.91%)
                                         0.0097  0.6235 -0.1681  0.0146  0.0382
                                         0.0544  0.0863 -0.2133 -0.2959 -0.0856
                                        -0.3027 -0.3904 -0.2596 -0.1249 -0.0468
                                        -0.1105  0.0475  0.2175 -0.0227 -0.0480
                                         0.0199  0.1907  0.0017
 166. (0.00004) RY ( 4) H  6            s( 39.40%)p 1.18( 46.51%)d 0.36( 14.09%)
 167. (0.00001) RY ( 5) H  6            s( 48.02%)p 0.41( 19.52%)d 0.68( 32.46%)
 168. (0.00001) RY ( 6) H  6            s( 15.26%)p 5.26( 80.34%)d 0.29(  4.40%)
 169. (0.00000) RY ( 7) H  6            s( 16.52%)p 1.78( 29.46%)d 3.27( 54.02%)
 170. (0.00000) RY ( 8) H  6            s(  6.79%)p 2.85( 19.37%)d10.88( 73.84%)
 171. (0.00000) RY ( 9) H  6            s(  7.52%)p 9.66( 72.64%)d 2.64( 19.84%)
 172. (0.00000) RY (10) H  6            s(  9.89%)p 6.85( 67.75%)d 2.26( 22.36%)
 173. (0.00000) RY (11) H  6            s( 38.40%)p 1.27( 48.74%)d 0.34( 12.87%)
 174. (0.00000) RY (12) H  6            s(  9.29%)p 6.06( 56.35%)d 3.70( 34.36%)
 175. (0.00000) RY (13) H  6            s( 19.66%)p 3.65( 71.83%)d 0.43(  8.51%)
 176. (0.00000) RY (14) H  6            s(  1.47%)p29.56( 43.59%)d37.26( 54.94%)
[...]
          EJ=  46.8236447128843    
 NEDASv:  IAct=2 IFrag=     2 NFrag=     2 L1Frag=      119156 IndFrg=      119156.
          EJ=  46.6275680441648    
 SCF Done:  E(RB3LYP) =  -76.4660208915     A.U. after    8 cycles
            NFock=  8  Conv=0.94D-08     -V/T= 2.0063
 CPIOFr:  IOpCl= 0 IRwI=-1 IRwCP=  731 ICalc=  2 LCPTot=       52207 Len1MO=      139218 IndFrg=      469861
                          Input orientation:                          
 ---------------------------------------------------------------------
 Center     Atomic      Atomic             Coordinates (Angstroms)
 Number     Number       Type             X           Y           Z
 ---------------------------------------------------------------------
      1          8           0        1.445944    0.095927   -0.022869
      2          1           0        0.549306   -0.261747   -0.159230
      3          1           0        1.983621   -0.630647    0.302040
      4          8           0       -1.353344   -0.019390   -0.091737
      5          1           0       -1.233593    0.801714    0.420055
      6          1           0       -2.040133   -0.521615    0.353981
 ---------------------------------------------------------------------
                    Distance matrix (angstroms):
                    1          2          3          4          5
     1  O    0.000000
     2  H    0.974928   0.000000
     3  H    0.960506   1.551167   0.000000
     4  O    2.802509   1.919210   3.415265   0.000000
     5  H    2.806107   2.155283   3.523642   0.974927   0.000000
     6  H    3.560352   2.652566   4.025566   0.960507   1.551152
                    6
     6  H    0.000000
 Stoichiometry    H4O2
 Framework group  C1[X(H4O2)]
 Deg. of freedom    12
 Full point group                 C1      NOp   1
 Largest Abelian subgroup         C1      NOp   1
 Largest concise Abelian subgroup C1      NOp   1
                         Standard orientation:                         
 ---------------------------------------------------------------------
 Center     Atomic      Atomic             Coordinates (Angstroms)
 Number     Number       Type             X           Y           Z
 ---------------------------------------------------------------------
      1          8           0       -1.445944   -0.095927   -0.022869
      2          1           0       -0.549306    0.261747   -0.159230
      3          1           0       -1.983621    0.630647    0.302040
      4          8           0        1.353344    0.019390   -0.091737
      5          1           0        1.233593   -0.801714    0.420055
      6          1           0        2.040133    0.521615    0.353981
 ---------------------------------------------------------------------
 Rotational constants (GHZ):         247.0969516           6.8960748           6.8053295

 **********************************************************************

            Population analysis using the SCF Density.

 **********************************************************************

 Orbital symmetries:
       Occupied  (A) (A) (A) (A) (A) (A) (A) (A) (A) (A)
       Virtual   (A) (A) (A) (A) (A) (A) (A) (A) (A) (A) (A) (A)
                 (A) (A) (A) (A) (A) (A) (A) (A) (A) (A) (A) (A)
                 (A) (A) (A) (A) (A) (A) (A) (A) (A) (A) (A) (A)
                 (A) (A) (A) (A) (A) (A) (A) (A) (A) (A) (A) (A)
                 (A) (A) (A) (A) (A) (A) (A) (A) (A) (A) (A) (A)
                 (A) (A) (A) (A) (A) (A) (A) (A) (A) (A) (A) (A)
                 (A) (A) (A) (A) (A) (A) (A) (A) (A) (A) (A) (A)
                 (A) (A) (A) (A) (A) (A) (A) (A) (A) (A) (A) (A)
                 (A) (A) (A) (A) (A) (A) (A) (A) (A) (A) (A) (A)
                 (A) (A) (A) (A) (A) (A) (A) (A) (A) (A) (A) (A)
                 (A) (A) (A) (A) (A) (A) (A) (A) (A) (A) (A) (A)
                 (A) (A) (A) (A) (A) (A) (A) (A) (A) (A) (A) (A)
                 (A) (A) (A) (A) (A) (A) (A) (A) (A) (A) (A) (A)
                 (A) (A) (A) (A) (A) (A) (A) (A) (A) (A) (A) (A)
                 (A) (A) (A) (A) (A) (A)
 The electronic state is 1-A.
 Alpha  occ. eigenvalues --  -19.14069  -1.01755  -0.54090  -0.39575  -0.32333
 Alpha  occ. eigenvalues --   -0.02585   0.01867   0.02878   0.04934   0.07268
 Alpha virt. eigenvalues --    0.09293   0.11041   0.11288   0.12566   0.12874
 Alpha virt. eigenvalues --    0.15328   0.16234   0.18801   0.18888   0.21732
 Alpha virt. eigenvalues --    0.23695   0.28162   0.28442   0.30094   0.30906
 Alpha virt. eigenvalues --    0.31930   0.33652   0.33958   0.34866   0.36575
 Alpha virt. eigenvalues --    0.38108   0.40151   0.47610   0.51177   0.54559
 Alpha virt. eigenvalues --    0.60027   0.61873   0.63058   0.63987   0.65631
 Alpha virt. eigenvalues --    0.68105   0.71239   0.72149   0.75199   0.78542
 Alpha virt. eigenvalues --    0.79071   0.79599   0.80569   0.82068   0.82794
 Alpha virt. eigenvalues --    0.84630   0.85613   0.89544   0.90847   0.92061
 Alpha virt. eigenvalues --    0.93110   0.94601   0.96645   0.98545   1.02281
 Alpha virt. eigenvalues --    1.03057   1.04957   1.07045   1.08564   1.10302
 Alpha virt. eigenvalues --    1.13923   1.16213   1.21068   1.25651   1.30815
 Alpha virt. eigenvalues --    1.33248   1.38229   1.43519   1.47948   1.51782
 Alpha virt. eigenvalues --    1.54026   1.61385   1.62050   1.65631   1.69834
 Alpha virt. eigenvalues --    1.75654   1.76965   1.81234   1.81835   1.88553
 Alpha virt. eigenvalues --    1.90713   2.06393   2.07857   2.17536   2.20039
 Alpha virt. eigenvalues --    2.22474   2.27090   2.33254   2.36997   2.41496
 Alpha virt. eigenvalues --    2.45698   2.45990   2.49481   2.51543   2.53858
 Alpha virt. eigenvalues --    2.54418   2.58027   2.61924   2.63284   2.68984
 Alpha virt. eigenvalues --    2.72480   2.84196   2.99541   3.16961   3.17314
 Alpha virt. eigenvalues --    3.25824   3.33638   3.36889   3.48102   3.51643
 Alpha virt. eigenvalues --    3.54947   3.73949   3.77239   3.87024   3.94085
 Alpha virt. eigenvalues --    4.03488   4.12098   4.12881   4.20214   4.23274
 Alpha virt. eigenvalues --    4.29601   4.34562   4.40438   4.45366   4.46425
 Alpha virt. eigenvalues --    4.53661   4.60162   4.66964   4.79958   4.83828
 Alpha virt. eigenvalues --    4.85677   4.89385   4.91115   4.96065   4.97437
 Alpha virt. eigenvalues --    5.01488   5.16535   5.28779   5.37096   5.46722
 Alpha virt. eigenvalues --    5.56384   5.62739   5.74713   5.86683   6.09978
 Alpha virt. eigenvalues --    6.14026   6.36185   6.39185   6.46905   6.63293
 Alpha virt. eigenvalues --    6.73624   6.82011   6.85130   6.85837   6.89478
 Alpha virt. eigenvalues --    6.93912   7.04692   7.22584   7.42025   7.45463
 Alpha virt. eigenvalues --    7.69292   7.79539   8.04888   8.18136   8.26932
 Alpha virt. eigenvalues --    8.32077   8.79510   8.89848   9.63031   9.82239
 Alpha virt. eigenvalues --   10.04912  10.25698  11.15549  11.67613  12.08405
 Alpha virt. eigenvalues --   13.51675  13.90207  15.20659  65.41098
          Condensed to atoms (all electrons):
               1          2          3          4          5          6
     1  O    0.000618  -0.000200  -0.000522  -0.002442   0.001431   0.000801
     2  H   -0.000200   0.001889  -0.000256  -0.021240   0.002666   0.001887
     3  H   -0.000522  -0.000256   0.001135  -0.002479  -0.000669  -0.000400
     4  O   -0.002442  -0.021240  -0.002479   7.883350   0.248972   0.256051
     5  H    0.001431   0.002666  -0.000669   0.248972   0.554169   0.001481
     6  H    0.000801   0.001887  -0.000400   0.256051   0.001481   0.588679
 Mulliken charges:
               1
     1  O    8.000314
     2  H    1.015253
     3  H    1.003191
     4  O   -0.362211
     5  H    0.191951
     6  H    0.151502
 Sum of Mulliken charges =  10.00000
 Mulliken charges with hydrogens summed into heavy atoms:
               1
     1  O   10.018757
     4  O   -0.018757
         Mulliken charges condensed to fragments:
      1     10.018757
      2     -0.018757
 Electronic spatial extent (au):  <R**2>=             89.2685
 Charge=             10.0000 electrons
 Dipole moment (field-independent basis, Debye):
    X=             66.8285    Y=             -0.1019    Z=              1.3171  Tot=             66.8416
 Quadrupole moment (field-independent basis, Debye-Ang):
   XX=             96.6396   YY=             -2.6319   ZZ=             -6.3562
   XY=             -0.7308   XZ=             -1.3864   YZ=             -0.3754
 Traceless Quadrupole moment (field-independent basis, Debye-Ang):
   XX=             67.4224   YY=            -31.8490   ZZ=            -35.5734
   XY=             -0.7308   XZ=             -1.3864   YZ=             -0.3754
 Octapole moment (field-independent basis, Debye-Ang**2):
  XXX=            157.3611  YYY=             -1.7062  ZZZ=              0.6890  XYY=             15.6747
  XXY=             13.2508  XXZ=              8.3156  XZZ=             14.0636  YZZ=             -0.3184
  YYZ=              1.3773  XYZ=             -2.0632
 Hexadecapole moment (field-independent basis, Debye-Ang**3):
 XXXX=            170.8337 YYYY=             -6.5054 ZZZZ=             -8.1023 XXXY=             -4.1512
 XXXZ=              1.6529 YYYX=             -2.9071 YYYZ=             -0.9176 ZZZX=              0.6676
 ZZZY=             -0.2793 XXYY=             -3.9097 XXZZ=            -14.1021 YYZZ=             -2.2580
 XXYZ=              5.5493 YYXZ=              2.7693 ZZXY=             -0.5874
 N-N= 9.090925288611D+00 E-N=-1.988526739019D+02  KE= 7.598901369240D+01
 Running external command "gaunbo7 R"
         input file       "/scr/ericg/b.11.3.4b/Gau-18533.EIn"
         output file      "/scr/ericg/b.11.3.4b/Gau-18533.EOu"
         message file     "/scr/ericg/b.11.3.4b/Gau-18533.EMs"
         fchk file        "/scr/ericg/b.11.3.4b/Gau-18533.EFC"
         mat. el file     "/scr/ericg/b.11.3.4b/Gau-18533.EUF"
 Coordinates do not match /B/: Transferring coordinates from /Mol/ to /B/.

 Writing WrtUnf unformatted file "/scr/ericg/b.11.3.4b/Gau-18533.EUF"
 Gaussian matrix elements                                         Version   2 NLab=11 Len12L=8 Len4L=8
 Write SHELL TO ATOM MAP                   from file      0 offset           0 length                  64 to matrix element file.
 Write SHELL TYPES                         from file      0 offset           0 length                  64 to matrix element file.
 Write NUMBER OF PRIMITIVES PER SHELL      from file      0 offset           0 length                  64 to matrix element file.
 Write PRIMITIVE EXPONENTS                 from file      0 offset           0 length                  98 to matrix element file.
 Write CONTRACTION COEFFICIENTS            from file      0 offset           0 length                  98 to matrix element file.
 Write P(S=P) CONTRACTION COEFFICIENTS     from file      0 offset           0 length                  98 to matrix element file.
 Write COORDINATES OF EACH SHELL           from file      0 offset           0 length                 192 to matrix element file.
 Write BONDS PER ATOM                      from file      0 offset           0 length                   6 to matrix element file.
 Write BONDED ATOMS                        from file      0 offset           0 length                   8 to matrix element file.
 Write BOND TYPES                          from file      0 offset           0 length                   8 to matrix element file.
 Write ONIOM CHARGE/MULT                   from file      0 offset           0 length                  32 to matrix element file.
 Write ONIOM ATOM LAYERS                   from file      0 offset           0 length                   6 to matrix element file.
 Write ONIOM ATOM MODIFIERS                from file      0 offset           0 length                   6 to matrix element file.
 Write ONIOM ATOM TYPES                    from file      0 offset           0 length                   6 to matrix element file.
 Write ONIOM LINK ATOMS                    from file      0 offset           0 length                   6 to matrix element file.
 Write ONIOM LINK CHARGES                  from file      0 offset           0 length                   6 to matrix element file.
 Write ONIOM LINK DISTANCES                from file      0 offset           0 length                  24 to matrix element file.
 Write SYMINF INTS                         from file      0 offset           0 length                  26 to matrix element file.
 Write ROTTR TO SO                         from file      0 offset           0 length                  12 to matrix element file.
 Write GAUSSIAN SCALARS                    from file    501 offset           0 to matrix element file.
 Write OPTIMIZATION FLAGS                  from file      0 offset           0 length                   6 to matrix element file.
 Write INTEGER ISO                         from file      0 offset           0 length                   6 to matrix element file.
 Write INTEGER FRAGMENT                    from file      0 offset           0 length                   6 to matrix element file.
 Write INTEGER SPIN                        from file      0 offset           0 length                   6 to matrix element file.
 Write REAL ZEFFECTIVE                     from file      0 offset           0 length                   6 to matrix element file.
 Write REAL GFACTOR                        from file      0 offset           0 length                   6 to matrix element file.
 Write REAL ZNUCLEAR                       from file      0 offset           0 length                   6 to matrix element file.
 Write MULLIKEN CHARGES                    from file      0 offset           0 length                   6 to matrix element file.
 Write NUCLEAR GRADIENT                    from file  10584 offset           0 length                  18 to matrix element file.
 Array NUCLEAR FORCE CONSTANTS              on  file  10585 does not exist.
 Write ELECTRIC DIPOLE MOMENT              from file      0 offset           0 length                   3 to matrix element file.
 Write NON-ADIABATIC COUPLING              from file  10810 offset           0 length                  18 to matrix element file.
 Write ELECTRONS PER FRAGMENT              from file      0 offset           0 length                   8 to matrix element file.
 Write BASIS FUNCTIONS PER FRAGMENT        from file      0 offset           0 length                  96 to matrix element file.
 Write FINITE EM FIELD                     from file  10521 offset           0 length                  35 to matrix element file.
 Write OVERLAP                             from file  10514 offset           0 length               17020 to matrix element file.
 Write CORE HAMILTONIAN ALPHA              from file  10515 offset           0 length               17020 to matrix element file.
 Write CORE HAMILTONIAN BETA               from file  10515 offset       17020 length               17020 to matrix element file.
 Write KINETIC ENERGY                      from file  10516 offset           0 length               17020 to matrix element file.
 Array ORTHOGONAL BASIS                     on  file  10685 does not exist.
 Write DIPOLE INTEGRALS                    from file  10518 offset           0 length               51060 to matrix element file.
 Array DIP VEL INTEGRALS                    on  file  10572 does not exist.
 Array R X DEL INTEGRALS                    on  file  10572 does not exist.
 Write ALPHA ORBITAL ENERGIES              from file      0 offset           0 length                 184 to matrix element file.
 Write ALPHA MO COEFFICIENTS               from file  10524 offset           0 length               33856 to matrix element file.
 Write ALPHA DENSITY MATRIX                from file      0 offset           0 length               17020 to matrix element file.
 Write ALPHA FOCK MATRIX                   from file  10536 offset           0 length               17020 to matrix element file.
 Write ENERGY-WEIGHTED DENSITY             from file  10571 offset           0 length               17020 to matrix element file.
 Write FRAGMENT DENSITY MATRICES           from file  10774 offset           0 length               34040 to matrix element file.
 Write FRAGMENT OPERATOR MATRICES          from file  10823 offset           0 length              238312 to matrix element file.
 Write ALPHA SCF DENSITY MATRIX            from file      0 offset           0 length               17020 to matrix element file.
 Write INTEGER PARAMETERS                  from file      0 offset           0 length                   2 to matrix element file.
 No 2e integrals to process.
 Perform NBO analysis...executing G16NBO...


 Natural Energy Decomposition Analysis (Summary):

                                                            Component
                    Energy(wfn)        Energy(wfn)          (kcal/mol)
 ------------------------------------------------------------------------------
 H4O2           -152.9380495(scf)  -152.9231543(loc)      CT =   -9.347
                                                          ES =   -8.447
                                                         POL =   -5.224
                                                          XC =   -3.680
 1. H2O          -76.4492286(def)   -76.4660031(rel) DEF(SE) =   10.526(  2.415)
 2. H2O          -76.4462754(def)   -76.4660209(rel) DEF(SE) =   12.390(  0.231)
                                                              ---------
                                                           E =   -3.781


 Electrical (ES+POL+SE) :    -11.024
   Charge Transfer (CT) :     -9.347
       Core (XC+DEF-SE) :     16.590
                        ------------
  Total Interaction (E) :     -3.781


 Dipole moments:

   1. H2O
      Dipole (def):   -0.8319(x),  -1.8366(y),   0.2401(z);   2.0305(tot) Debye
      Dipole (rel):   -0.5612(x),  -1.7143(y),   0.2992(z);   1.8285(tot) Debye
      Dipole (ind):   -0.2707(x),  -0.1223(y),  -0.0591(z);   0.3028(tot) Debye
   2. H2O
      Dipole (def):   -0.9637(x),   0.6302(y),   1.6383(z);   2.0025(tot) Debye
      Dipole (rel):   -0.8989(x),   0.4984(y),   1.5099(z);   1.8266(tot) Debye
      Dipole (ind):   -0.0648(x),   0.1318(y),   0.1283(z);   0.1950(tot) Debye

 Opening RunExU unformatted file "/scr/ericg/b.11.3.4b/Gau-18533.EUF"
 Read unf file /scr/ericg/b.11.3.4b/Gau-18533.EUF:
 Label Gaussian matrix elements                                         IVers= 2 NLab= 2 Version=ES64L-G16RevC.01
 Title water dimer (geometry of C3 water trimer)                       
 NAtoms=     6 NBasis=   184 NBsUse=   184 ICharg=     0 Multip=     1 NE=    20 Len12L=8 Len4L=8 IOpCl= 0 ICGU=111
 GAUSSIAN SCALARS                    NI= 1 NR= 1 NTot=       1 LenBuf=    2 NRI=1 N=    1000
 Recovered energy= -76.4660208915     dipole=     26.292375518727     -0.040078793039      0.518201812851
 Unable to Open any file for archive entry.
 1\1\GINC-NEUTRON\SP\RB3LYP\Aug-CC-pVTZ\H4O2\ERICG\20-May-2020\0\\# b3l
 yp/aug-cc-pvtz neda=2\\water dimer (geometry of C3 water trimer)\\0,1\
 O,0,-0.957406,1.304375,-0.09187\H,0,0.014172,1.244266,-0.03794\H,0,-1.
 225393,1.975012,0.541376\O,0,1.608343,0.176994,-0.091952\H,0,1.070533,
 -0.63439,-0.038105\H,0,2.322945,0.073834,0.541511\\Version=ES64L-G16Re
 vC.01\State=1-A\HF=-76.4660209\RMSD=9.387e-09\Dipole=-26.2923755,0.040
 0788,0.5182018\Quadrupole=50.1269006,-23.6789603,-26.4479404,-0.543327
 1,1.0307537,0.2791095\PG=C01 [X(H4O2)]\\@
 The archive entry for this job was punched.


 ERROR IS THE FORCE THAT WELDS MEN TOGETHER....
 TRUTH IS COMMUNICATED TO MEN ONLY BY DEEDS OF TRUTH.
           TOLSTOI,MY RELIGION
 Job cpu time:       0 days  0 hours  6 minutes  4.8 seconds.
 Elapsed time:       0 days  0 hours  1 minutes 35.3 seconds.
 File lengths (MBytes):  RWF=     31 Int=      0 D2E=      0 Chk=      7 Scr=      1
 Normal termination of Gaussian 16 at Wed May 20 10:30:14 2020.
