 Entering Gaussian System, Link 0=/opt/g16.c01/g16/g16
 Initial command:
 /opt/g16.c01/g16/l1.exe "/scr/ericg/b.11.3.3a/Gau-16850.inp" -scrdir="/scr/ericg/b.11.3.3a/"
 Entering Link 1 = /opt/g16.c01/g16/l1.exe PID=     16852.
  
 Copyright (c) 1988-2019, Gaussian, Inc.  All Rights Reserved.
  
 This is part of the Gaussian(R) 16 program.  It is based on
 the Gaussian(R) 09 system (copyright 2009, Gaussian, Inc.),
 the Gaussian(R) 03 system (copyright 2003, Gaussian, Inc.),
 the Gaussian(R) 98 system (copyright 1998, Gaussian, Inc.),
 the Gaussian(R) 94 system (copyright 1995, Gaussian, Inc.),
 the Gaussian 92(TM) system (copyright 1992, Gaussian, Inc.),
 the Gaussian 90(TM) system (copyright 1990, Gaussian, Inc.),
 the Gaussian 88(TM) system (copyright 1988, Gaussian, Inc.),
 the Gaussian 86(TM) system (copyright 1986, Carnegie Mellon
 University), and the Gaussian 82(TM) system (copyright 1983,
 Carnegie Mellon University). Gaussian is a federally registered
 trademark of Gaussian, Inc.
  
 This software contains proprietary and confidential information,
 including trade secrets, belonging to Gaussian, Inc.
  
 This software is provided under written license and may be
 used, copied, transmitted, or stored only in accord with that
 written license.
  
 The following legend is applicable only to US Government
 contracts under FAR:
  
                    RESTRICTED RIGHTS LEGEND
  
 Use, reproduction and disclosure by the US Government is
 subject to restrictions as set forth in subparagraphs (a)
 and (c) of the Commercial Computer Software - Restricted
 Rights clause in FAR 52.227-19.
  
 Gaussian, Inc.
 340 Quinnipiac St., Bldg. 40, Wallingford CT 06492
  
  
 ---------------------------------------------------------------
 Warning -- This program may not be used in any manner that
 competes with the business of Gaussian, Inc. or will provide
 assistance to any competitor of Gaussian, Inc.  The licensee
 of this program is prohibited from giving any competitor of
 Gaussian, Inc. access to this program.  By using this program,
 the user acknowledges that Gaussian, Inc. is engaged in the
 business of creating and licensing software in the field of
 computational chemistry and represents and warrants to the
 licensee that it is not a competitor of Gaussian, Inc. and that
 it will not use this program in any manner prohibited above.
 ---------------------------------------------------------------
  

 Cite this work as:
 Gaussian 16, Revision C.01,
 M. J. Frisch, G. W. Trucks, H. B. Schlegel, G. E. Scuseria, 
 M. A. Robb, J. R. Cheeseman, G. Scalmani, V. Barone, 
 G. A. Petersson, H. Nakatsuji, X. Li, M. Caricato, A. V. Marenich, 
 J. Bloino, B. G. Janesko, R. Gomperts, B. Mennucci, H. P. Hratchian, 
 J. V. Ortiz, A. F. Izmaylov, J. L. Sonnenberg, D. Williams-Young, 
 F. Ding, F. Lipparini, F. Egidi, J. Goings, B. Peng, A. Petrone, 
 T. Henderson, D. Ranasinghe, V. G. Zakrzewski, J. Gao, N. Rega, 
 G. Zheng, W. Liang, M. Hada, M. Ehara, K. Toyota, R. Fukuda, 
 J. Hasegawa, M. Ishida, T. Nakajima, Y. Honda, O. Kitao, H. Nakai, 
 T. Vreven, K. Throssell, J. A. Montgomery, Jr., J. E. Peralta, 
 F. Ogliaro, M. J. Bearpark, J. J. Heyd, E. N. Brothers, K. N. Kudin, 
 V. N. Staroverov, T. A. Keith, R. Kobayashi, J. Normand, 
 K. Raghavachari, A. P. Rendell, J. C. Burant, S. S. Iyengar, 
 J. Tomasi, M. Cossi, J. M. Millam, M. Klene, C. Adamo, R. Cammi, 
 J. W. Ochterski, R. L. Martin, K. Morokuma, O. Farkas, 
 J. B. Foresman, and D. J. Fox, Gaussian, Inc., Wallingford CT, 2019.
 
 ******************************************
 Gaussian 16:  ES64L-G16RevC.01  3-Jul-2019
                20-May-2020 
 ******************************************
 %nproc=4
 Will use up to    4 processors via shared memory.
 -------------------------
 # b3lyp/6-311++g** neda=2
 -------------------------
 1/38=1,62=2,160=70,172=1/1;
 2/12=2,17=6,18=5,40=1/2;
 1/38=1,53=2,62=2,63=1,160=70/22;
 3/5=4,6=6,7=1111,11=2,25=1,30=1,74=-5/1,2,3;
 4//1;
 5/5=2,38=5/2;
 6/7=2,8=2,9=2,10=2,28=1,40=111,113=1,114=1,124=2103/1,12(1);
 99/5=1,9=1/99;
 5/5=2,7=1,13=1,38=1,48=100000/2;
 6/7=2,8=2,9=2,10=2,28=1,40=203,113=1,114=1,124=2103/12(-1);
 1/53=2,62=2,63=1,160=70/22;
 3/5=7,6=11,7=1111,11=2,25=1,30=1,74=-5,82=7/1,2,3;
 4/5=19/1;
 5/5=2,38=1,48=100000,185=1/2;
 1/53=2,62=2,63=1,160=70/22(-3);
 2//2;
 6/7=2,8=2,9=2,10=2,19=2,28=1,40=301,113=1,114=1,124=2103/1,12;
 99/5=1,9=1/99;
 -------------------------
 Ethane...NEDA of C-C bond
 -------------------------
 Symbolic Z-matrix:
 Charge =  0 Multiplicity = 1 in supermolecule
 Charge =  0 Multiplicity = 2 in fragment      1.
 Charge =  0 Multiplicity =-2 in fragment      2.
 C                     0.        0.        0.76535    
 C                     0.        0.       -0.76535    
 H                     0.        1.01857   1.16369    
 H                    -0.88211  -0.50929   1.16369    
 H                     0.88211  -0.50929   1.16369    
 H                     0.88211   0.50929  -1.16369    
 H                     0.       -1.01857  -1.16369    
 H                    -0.88211   0.50929  -1.16369    
 
                          Input orientation:                          
 ---------------------------------------------------------------------
 Center     Atomic      Atomic             Coordinates (Angstroms)
 Number     Number       Type             X           Y           Z
 ---------------------------------------------------------------------
      1          6           0        0.000000    0.000000    0.765350
      2          6           0        0.000000    0.000000   -0.765350
      3          1           0        0.000000    1.018574    1.163687
      4          1           0       -0.882111   -0.509287    1.163687
      5          1           0        0.882111   -0.509287    1.163687
      6          1           0        0.882111    0.509287   -1.163687
      7          1           0        0.000000   -1.018574   -1.163687
      8          1           0       -0.882111    0.509287   -1.163687
 ---------------------------------------------------------------------
                    Distance matrix (angstroms):
                    1          2          3          4          5
     1  C    0.000000
     2  C    1.530700   0.000000
     3  H    1.093693   2.181439   0.000000
     4  H    1.093693   2.181439   1.764222   0.000000
     5  H    1.093693   2.181439   1.764222   1.764222   0.000000
     6  H    2.181439   1.093693   2.540504   3.092999   2.540504
     7  H    2.181439   1.093693   3.092999   2.540504   2.540504
     8  H    2.181439   1.093693   2.540504   2.540504   3.092999
                    6          7          8
     6  H    0.000000
     7  H    1.764222   0.000000
     8  H    1.764222   1.764222   0.000000
 Stoichiometry    C2H6
 Framework group  D3D[C3(C.C),3SGD(H2)]
 Deg. of freedom     3
 Full point group                 D3D     NOp  12
 Largest Abelian subgroup         C2H     NOp   4
 Largest concise Abelian subgroup C2H     NOp   4
                         Standard orientation:                         
 ---------------------------------------------------------------------
 Center     Atomic      Atomic             Coordinates (Angstroms)
 Number     Number       Type             X           Y           Z
 ---------------------------------------------------------------------
      1          6           0        0.000000    0.000000    0.765350
      2          6           0       -0.000000   -0.000000   -0.765350
      3          1           0        0.000000    1.018574    1.163687
      4          1           0       -0.882111   -0.509287    1.163687
      5          1           0        0.882111   -0.509287    1.163687
      6          1           0        0.882111    0.509287   -1.163687
      7          1           0       -0.000000   -1.018574   -1.163687
      8          1           0       -0.882111    0.509287   -1.163687
 ---------------------------------------------------------------------
 Rotational constants (GHZ):          80.5555809          19.9096098          19.9096098
 Mismatch for IA=      1 IOp=  2 Frag=      1 JA=      2 Frag=      2
 Mismatch for IA=      2 IOp=  2 Frag=      2 JA=      1 Frag=      1
 Mismatch for IA=      3 IOp=  2 Frag=      1 JA=      7 Frag=      2
 Mismatch for IA=      4 IOp=  2 Frag=      1 JA=      8 Frag=      2
 Mismatch for IA=      5 IOp=  2 Frag=      1 JA=      6 Frag=      2
 Mismatch for IA=      6 IOp=  2 Frag=      2 JA=      5 Frag=      1
 Mismatch for IA=      7 IOp=  2 Frag=      2 JA=      3 Frag=      1
 Mismatch for IA=      8 IOp=  2 Frag=      2 JA=      4 Frag=      1
 Symmetry turned off in CkCPSy: fragments do not conform to real system point group.
 Returning to input orientation because symmetry turned off.
 NEDA: doing full-system calculation.
 Standard basis: 6-311++G(d,p) (5D, 7F)
    86 basis functions,   126 primitive gaussians,    88 cartesian basis functions
     9 alpha electrons        9 beta electrons
       nuclear repulsion energy        42.1596050407 Hartrees.
 NAtoms=    8 NActive=    8 NUniq=    8 SFac= 1.00D+00 NAtFMM=   60 NAOKFM=F Big=F
 Integral buffers will be    131072 words long.
 Raffenetti 2 integral format.
 Two-electron integral symmetry is turned off.
 One-electron integrals computed using PRISM.
 NBasis=    86 RedAO= T EigKep=  1.50D-04  NBF=    86
 NBsUse=    86 1.00D-06 EigRej= -1.00D+00 NBFU=    86
 ExpMin= 3.60D-02 ExpMax= 4.56D+03 ExpMxC= 6.82D+02 IAcc=3 IRadAn=         5 AccDes= 0.00D+00
 Harris functional with IExCor=  402 and IRadAn=       5 diagonalized for initial guess.
 HarFok:  IExCor=  402 AccDes= 0.00D+00 IRadAn=         5 IDoV= 1 UseB2=F ITyADJ=14
 ICtDFT=  3500011 ScaDFX=  1.000000  1.000000  1.000000  1.000000
 FoFCou: FMM=F IPFlag=           0 FMFlag=      100000 FMFlg1=           0
         NFxFlg=           0 DoJE=T BraDBF=F KetDBF=T FulRan=T
         wScrn=  0.000000 ICntrl=       500 IOpCl=  0 I1Cent=   200000004 NGrid=           0
         NMat0=    1 NMatS0=      1 NMatT0=    0 NMatD0=    1 NMtDS0=    0 NMtDT0=    0
 Symmetry not used in FoFCou.
 Initial guess <Sx>= 0.0000 <Sy>= 0.0000 <Sz>= 0.0000 <S**2>=-0.0000 S=-0.0000
 Keep R1 and R2 ints in memory in canonical form, NReq=17656410.
 Requested convergence on RMS density matrix=1.00D-08 within 128 cycles.
 Requested convergence on MAX density matrix=1.00D-06.
 Requested convergence on             energy=1.00D-06.
 No special actions if energy rises.
 SCF Done:  E(UB3LYP) =  -79.8565753400     A.U. after    8 cycles
            NFock=  8  Conv=0.96D-09     -V/T= 2.0058
 <Sx>= 0.0000 <Sy>= 0.0000 <Sz>= 0.0000 <S**2>=-0.0000 S=-0.0000
 <L.S>= 0.000000000000E+00
 Annihilation of the first spin contaminant:
 S**2 before annihilation    -0.0000,   after    -0.0000

 **********************************************************************

            Population analysis using the SCF Density.

 **********************************************************************

 Alpha  occ. eigenvalues --  -10.15898 -10.15875  -0.75415  -0.61800  -0.43665
 Alpha  occ. eigenvalues --   -0.43665  -0.37083  -0.34600  -0.34600
 Alpha virt. eigenvalues --   -0.00584   0.01588   0.02790   0.02790   0.05837
 Alpha virt. eigenvalues --    0.05837   0.07944   0.08951   0.08951   0.12174
 Alpha virt. eigenvalues --    0.12492   0.14040   0.14040   0.14078   0.17338
 Alpha virt. eigenvalues --    0.17338   0.20854   0.20854   0.25361   0.29702
 Alpha virt. eigenvalues --    0.31339   0.43383   0.43383   0.45619   0.45988
 Alpha virt. eigenvalues --    0.45988   0.64322   0.64322   0.64516   0.66157
 Alpha virt. eigenvalues --    0.66157   0.70930   0.72715   0.83866   0.89766
 Alpha virt. eigenvalues --    0.96119   0.96119   1.25627   1.25627   1.46290
 Alpha virt. eigenvalues --    1.46968   1.54501   1.54501   1.55904   1.55904
 Alpha virt. eigenvalues --    1.56437   1.69588   1.69588   1.74937   1.84800
 Alpha virt. eigenvalues --    1.84800   2.09429   2.11969   2.12772   2.12772
 Alpha virt. eigenvalues --    2.32243   2.32243   2.42330   2.47460   2.47460
 Alpha virt. eigenvalues --    2.48445   2.59610   2.59610   2.63244   2.63244
 Alpha virt. eigenvalues --    2.66513   2.66513   2.83748   2.84004   3.20597
 Alpha virt. eigenvalues --    3.80196   3.80196   3.81717   3.81717   4.22416
 Alpha virt. eigenvalues --   23.90972  24.00408
  Beta  occ. eigenvalues --  -10.15898 -10.15875  -0.75415  -0.61800  -0.43665
  Beta  occ. eigenvalues --   -0.43665  -0.37083  -0.34600  -0.34600
  Beta virt. eigenvalues --   -0.00584   0.01588   0.02790   0.02790   0.05837
  Beta virt. eigenvalues --    0.05837   0.07944   0.08951   0.08951   0.12174
  Beta virt. eigenvalues --    0.12492   0.14040   0.14040   0.14078   0.17338
  Beta virt. eigenvalues --    0.17338   0.20854   0.20854   0.25361   0.29702
  Beta virt. eigenvalues --    0.31339   0.43383   0.43383   0.45619   0.45988
  Beta virt. eigenvalues --    0.45988   0.64322   0.64322   0.64516   0.66157
  Beta virt. eigenvalues --    0.66157   0.70930   0.72715   0.83866   0.89766
  Beta virt. eigenvalues --    0.96119   0.96119   1.25627   1.25627   1.46290
  Beta virt. eigenvalues --    1.46968   1.54501   1.54501   1.55904   1.55904
  Beta virt. eigenvalues --    1.56437   1.69588   1.69588   1.74937   1.84800
  Beta virt. eigenvalues --    1.84800   2.09429   2.11969   2.12772   2.12772
  Beta virt. eigenvalues --    2.32243   2.32243   2.42330   2.47460   2.47460
  Beta virt. eigenvalues --    2.48445   2.59610   2.59610   2.63244   2.63244
  Beta virt. eigenvalues --    2.66513   2.66513   2.83748   2.84004   3.20597
  Beta virt. eigenvalues --    3.80196   3.80196   3.81717   3.81717   4.22416
  Beta virt. eigenvalues --   23.90972  24.00408
          Condensed to atoms (all electrons):
               1          2          3          4          5          6
     1  C    5.052356   0.240915   0.413247   0.413247   0.413247  -0.048914
     2  C    0.240915   5.052356  -0.048914  -0.048914  -0.048914   0.413247
     3  H    0.413247  -0.048914   0.587206  -0.038354  -0.038354  -0.006326
     4  H    0.413247  -0.048914  -0.038354   0.587206  -0.038353   0.009065
     5  H    0.413247  -0.048914  -0.038354  -0.038353   0.587206  -0.006326
     6  H   -0.048914   0.413247  -0.006326   0.009065  -0.006326   0.587206
     7  H   -0.048914   0.413247   0.009065  -0.006326  -0.006326  -0.038354
     8  H   -0.048914   0.413247  -0.006326  -0.006326   0.009065  -0.038353
               7          8
     1  C   -0.048914  -0.048914
     2  C    0.413247   0.413247
     3  H    0.009065  -0.006326
     4  H   -0.006326  -0.006326
     5  H   -0.006326   0.009065
     6  H   -0.038354  -0.038353
     7  H    0.587206  -0.038354
     8  H   -0.038354   0.587206
          Atomic-Atomic Spin Densities.
               1          2          3          4          5          6
     1  C   -0.000000  -0.000000   0.000000  -0.000000   0.000000  -0.000000
     2  C   -0.000000   0.000000  -0.000000   0.000000   0.000000   0.000000
     3  H    0.000000  -0.000000  -0.000000   0.000000  -0.000000   0.000000
     4  H   -0.000000   0.000000   0.000000   0.000000   0.000000   0.000000
     5  H    0.000000   0.000000  -0.000000   0.000000  -0.000000   0.000000
     6  H   -0.000000   0.000000   0.000000   0.000000   0.000000  -0.000000
     7  H   -0.000000   0.000000  -0.000000  -0.000000  -0.000000  -0.000000
     8  H    0.000000  -0.000000  -0.000000  -0.000000  -0.000000  -0.000000
               7          8
     1  C   -0.000000   0.000000
     2  C    0.000000  -0.000000
     3  H   -0.000000  -0.000000
     4  H   -0.000000  -0.000000
     5  H   -0.000000  -0.000000
     6  H   -0.000000  -0.000000
     7  H   -0.000000  -0.000000
     8  H   -0.000000  -0.000000
 Mulliken charges and spin densities:
               1          2
     1  C   -0.386270  -0.000000
     2  C   -0.386270   0.000000
     3  H    0.128757   0.000000
     4  H    0.128756   0.000000
     5  H    0.128756   0.000000
     6  H    0.128756  -0.000000
     7  H    0.128757  -0.000000
     8  H    0.128756  -0.000000
 Sum of Mulliken charges =  -0.00000   0.00000
 Mulliken charges and spin densities with hydrogens summed into heavy atoms:
               1          2
     1  C   -0.000000  -0.000000
     2  C    0.000000   0.000000
         Mulliken charges and spin densities condensed to fragments:
      1     -0.000000     -0.000000
      2      0.000000      0.000000
 Electronic spatial extent (au):  <R**2>=            110.4648
 Charge=             -0.0000 electrons
 Dipole moment (field-independent basis, Debye):
    X=              0.0000    Y=              0.0000    Z=             -0.0000  Tot=              0.0000
 Quadrupole moment (field-independent basis, Debye-Ang):
   XX=            -15.0670   YY=            -15.0670   ZZ=            -15.7569
   XY=              0.0000   XZ=              0.0000   YZ=             -0.0000
 Traceless Quadrupole moment (field-independent basis, Debye-Ang):
   XX=              0.2300   YY=              0.2300   ZZ=             -0.4599
   XY=              0.0000   XZ=              0.0000   YZ=             -0.0000
 Octapole moment (field-independent basis, Debye-Ang**2):
  XXX=              0.0000  YYY=              0.0000  ZZZ=              0.0000  XYY=              0.0000
  XXY=             -0.0000  XXZ=             -0.0000  XZZ=              0.0000  YZZ=              0.0000
  YYZ=             -0.0000  XYZ=             -0.0000
 Hexadecapole moment (field-independent basis, Debye-Ang**3):
 XXXX=            -31.0871 YYYY=            -31.0871 ZZZZ=            -97.9794 XXXY=              0.0000
 XXXZ=              0.0000 YYYX=              0.0000 YYYZ=              1.3686 ZZZX=              0.0000
 ZZZY=             -0.0000 XXYY=            -10.3624 XXZZ=            -20.4335 YYZZ=            -20.4335
 XXYZ=             -1.3686 YYXZ=             -0.0000 ZZXY=             -0.0000
 N-N= 4.215960504074D+01 E-N=-2.685465161190D+02  KE= 7.939573095042D+01
                          Isotropic Fermi Contact Couplings
        Atom                 a.u.       MegaHertz       Gauss      10(-4) cm-1
     1  C(13)              0.00000       0.00000       0.00000       0.00000
     2  C(13)              0.00000       0.00000       0.00000       0.00000
     3  H(1)              -0.00000      -0.00000      -0.00000      -0.00000
     4  H(1)               0.00000       0.00000       0.00000       0.00000
     5  H(1)               0.00000       0.00000       0.00000       0.00000
     6  H(1)              -0.00000      -0.00000      -0.00000      -0.00000
     7  H(1)              -0.00000      -0.00000      -0.00000      -0.00000
     8  H(1)              -0.00000      -0.00000      -0.00000      -0.00000
 --------------------------------------------------------
       Center         ----  Spin Dipole Couplings  ----
                      3XX-RR        3YY-RR        3ZZ-RR
 --------------------------------------------------------
     1   Atom        0.000000      0.000000      0.000000
     2   Atom        0.000000      0.000000      0.000000
     3   Atom        0.000000      0.000000      0.000000
     4   Atom        0.000000      0.000000      0.000000
     5   Atom        0.000000      0.000000      0.000000
     6   Atom        0.000000      0.000000      0.000000
     7   Atom        0.000000      0.000000      0.000000
     8   Atom        0.000000      0.000000      0.000000
 --------------------------------------------------------
                        XY            XZ            YZ
 --------------------------------------------------------
     1   Atom        0.000000      0.000000      0.000000
     2   Atom        0.000000      0.000000      0.000000
     3   Atom        0.000000      0.000000      0.000000
     4   Atom        0.000000      0.000000      0.000000
     5   Atom        0.000000      0.000000      0.000000
     6   Atom        0.000000      0.000000      0.000000
     7   Atom        0.000000      0.000000      0.000000
     8   Atom        0.000000      0.000000      0.000000
 --------------------------------------------------------


 ---------------------------------------------------------------------------------
              Anisotropic Spin Dipole Couplings in Principal Axis System
 ---------------------------------------------------------------------------------

       Atom             a.u.   MegaHertz   Gauss  10(-4) cm-1        Axes

              Baa     0.0000     0.000     0.000     0.000  1.0000  0.0000  0.0000
     1 C(13)  Bbb     0.0000     0.000     0.000     0.000 -0.0000  1.0000  0.0000
              Bcc     0.0000     0.000     0.000     0.000  0.0000  0.0000  1.0000
 
              Baa     0.0000     0.000     0.000     0.000  1.0000  0.0000  0.0000
     2 C(13)  Bbb     0.0000     0.000     0.000     0.000 -0.0000  1.0000  0.0000
              Bcc     0.0000     0.000     0.000     0.000  0.0000  0.0000  1.0000
 
              Baa     0.0000     0.000     0.000     0.000  1.0000  0.0000  0.0000
     3 H(1)   Bbb     0.0000     0.000     0.000     0.000 -0.0000  1.0000  0.0000
              Bcc     0.0000     0.000     0.000     0.000  0.0000  0.0000  1.0000
 
              Baa     0.0000     0.000     0.000     0.000  1.0000  0.0000  0.0000
     4 H(1)   Bbb     0.0000     0.000     0.000     0.000 -0.0000  1.0000  0.0000
              Bcc     0.0000     0.000     0.000     0.000  0.0000  0.0000  1.0000
 
              Baa     0.0000     0.000     0.000     0.000  1.0000  0.0000  0.0000
     5 H(1)   Bbb     0.0000     0.000     0.000     0.000 -0.0000  1.0000  0.0000
              Bcc     0.0000     0.000     0.000     0.000  0.0000  0.0000  1.0000
 
              Baa     0.0000     0.000     0.000     0.000  1.0000  0.0000  0.0000
     6 H(1)   Bbb     0.0000     0.000     0.000     0.000 -0.0000  1.0000  0.0000
              Bcc     0.0000     0.000     0.000     0.000  0.0000  0.0000  1.0000
 
              Baa     0.0000     0.000     0.000     0.000  1.0000  0.0000  0.0000
     7 H(1)   Bbb     0.0000     0.000     0.000     0.000 -0.0000  1.0000  0.0000
              Bcc     0.0000     0.000     0.000     0.000  0.0000  0.0000  1.0000
 
              Baa     0.0000     0.000     0.000     0.000  1.0000  0.0000  0.0000
     8 H(1)   Bbb     0.0000     0.000     0.000     0.000 -0.0000  1.0000  0.0000
              Bcc     0.0000     0.000     0.000     0.000  0.0000  0.0000  1.0000
 

 ---------------------------------------------------------------------------------

 Running external command "gaunbo7 R"
         input file       "/scr/ericg/b.11.3.3a/Gau-16852.EIn"
         output file      "/scr/ericg/b.11.3.3a/Gau-16852.EOu"
         message file     "/scr/ericg/b.11.3.3a/Gau-16852.EMs"
         fchk file        "/scr/ericg/b.11.3.3a/Gau-16852.EFC"
         mat. el file     "/scr/ericg/b.11.3.3a/Gau-16852.EUF"

 Writing WrtUnf unformatted file "/scr/ericg/b.11.3.3a/Gau-16852.EUF"
 Gaussian matrix elements                                         Version   2 NLab=11 Len12L=8 Len4L=8
 Write SHELL TO ATOM MAP                   from file      0 offset           0 length                  42 to matrix element file.
 Write SHELL TYPES                         from file      0 offset           0 length                  42 to matrix element file.
 Write NUMBER OF PRIMITIVES PER SHELL      from file      0 offset           0 length                  42 to matrix element file.
 Write PRIMITIVE EXPONENTS                 from file      0 offset           0 length                  68 to matrix element file.
 Write CONTRACTION COEFFICIENTS            from file      0 offset           0 length                  68 to matrix element file.
 Write P(S=P) CONTRACTION COEFFICIENTS     from file      0 offset           0 length                  68 to matrix element file.
 Write COORDINATES OF EACH SHELL           from file      0 offset           0 length                 126 to matrix element file.
 Write BONDS PER ATOM                      from file      0 offset           0 length                   8 to matrix element file.
 Write BONDED ATOMS                        from file      0 offset           0 length                  14 to matrix element file.
 Write BOND TYPES                          from file      0 offset           0 length                  14 to matrix element file.
 Write ONIOM CHARGE/MULT                   from file      0 offset           0 length                  32 to matrix element file.
 Write ONIOM ATOM LAYERS                   from file      0 offset           0 length                   8 to matrix element file.
 Write ONIOM ATOM MODIFIERS                from file      0 offset           0 length                   8 to matrix element file.
 Write ONIOM ATOM TYPES                    from file      0 offset           0 length                   8 to matrix element file.
 Write ONIOM LINK ATOMS                    from file      0 offset           0 length                   8 to matrix element file.
 Write ONIOM LINK CHARGES                  from file      0 offset           0 length                   8 to matrix element file.
 Write ONIOM LINK DISTANCES                from file      0 offset           0 length                  32 to matrix element file.
 Write SYMINF INTS                         from file      0 offset           0 length                  26 to matrix element file.
 Write ROTTR TO SO                         from file      0 offset           0 length                  12 to matrix element file.
 Write GAUSSIAN SCALARS                    from file    501 offset           0 to matrix element file.
 Write OPTIMIZATION FLAGS                  from file      0 offset           0 length                   8 to matrix element file.
 Write INTEGER ISO                         from file      0 offset           0 length                   8 to matrix element file.
 Write INTEGER FRAGMENT                    from file      0 offset           0 length                   8 to matrix element file.
 Write INTEGER SPIN                        from file      0 offset           0 length                   8 to matrix element file.
 Write REAL ZEFFECTIVE                     from file      0 offset           0 length                   8 to matrix element file.
 Write REAL GFACTOR                        from file      0 offset           0 length                   8 to matrix element file.
 Write REAL ZNUCLEAR                       from file      0 offset           0 length                   8 to matrix element file.
 Write MULLIKEN CHARGES                    from file      0 offset           0 length                   8 to matrix element file.
 Write NUCLEAR GRADIENT                    from file  10584 offset           0 length                  24 to matrix element file.
 Array NUCLEAR FORCE CONSTANTS              on  file  10585 does not exist.
 Write ELECTRIC DIPOLE MOMENT              from file      0 offset           0 length                   3 to matrix element file.
 Write NON-ADIABATIC COUPLING              from file  10810 offset           0 length                  24 to matrix element file.
 Write ELECTRONS PER FRAGMENT              from file      0 offset           0 length                   8 to matrix element file.
 Write BASIS FUNCTIONS PER FRAGMENT        from file      0 offset           0 length                  96 to matrix element file.
 Write FINITE EM FIELD                     from file  10521 offset           0 length                  35 to matrix element file.
 Write OVERLAP                             from file  10514 offset           0 length                3741 to matrix element file.
 Write CORE HAMILTONIAN ALPHA              from file  10515 offset           0 length                3741 to matrix element file.
 Write CORE HAMILTONIAN BETA               from file  10515 offset        3741 length                3741 to matrix element file.
 Write KINETIC ENERGY                      from file  10516 offset           0 length                3741 to matrix element file.
 Write ORTHOGONAL BASIS                    from file  10685 offset           0 length                7396 to matrix element file.
 Write DIPOLE INTEGRALS                    from file  10518 offset           0 length               11223 to matrix element file.
 Array DIP VEL INTEGRALS                    on  file  10572 does not exist.
 Array R X DEL INTEGRALS                    on  file  10572 does not exist.
 Write ALPHA ORBITAL ENERGIES              from file      0 offset           0 length                  86 to matrix element file.
 Write BETA ORBITAL ENERGIES               from file      0 offset           0 length                  86 to matrix element file.
 Write ALPHA MO COEFFICIENTS               from file  10524 offset           0 length                7396 to matrix element file.
 Write BETA MO COEFFICIENTS                from file  10526 offset           0 length                7396 to matrix element file.
 Write ALPHA DENSITY MATRIX                from file      0 offset           0 length                3741 to matrix element file.
 Write BETA DENSITY MATRIX                 from file      0 offset           0 length                3741 to matrix element file.
 Write ALPHA FOCK MATRIX                   from file  10536 offset           0 length                3741 to matrix element file.
 Write BETA FOCK MATRIX                    from file  10538 offset           0 length                3741 to matrix element file.
 Write ENERGY-WEIGHTED DENSITY             from file  10571 offset           0 length                3741 to matrix element file.
 Write ALPHA SCF DENSITY MATRIX            from file      0 offset           0 length                3741 to matrix element file.
 Write BETA SCF DENSITY MATRIX             from file      0 offset           0 length                3741 to matrix element file.
 Write INTEGER PARAMETERS                  from file      0 offset           0 length                   2 to matrix element file.
 No 2e integrals to process.
 Perform NBO analysis...executing G16NBO...

 *********************************** NBO 7.0 ***********************************
             N A T U R A L   A T O M I C   O R B I T A L   A N D
          N A T U R A L   B O N D   O R B I T A L   A N A L Y S I S
 ************************ development version (D000000) ************************
  (c) Copyright 1996-2020 Board of Regents of the University of Wisconsin System
      on behalf of the Theoretical Chemistry Institute.  All rights reserved.

          Cite this program [NBO 7.0.9 (21-May-2020)] as:

          NBO 7.0.  E. D. Glendening, J. K. Badenhoop, A. E. Reed,
          J. E. Carpenter, J. A. Bohmann, C. M. Morales, P. Karafiloglou,
          C. R. Landis, and F. Weinhold, Theoretical Chemistry Institute,
          University of Wisconsin, Madison, WI (2018)


 Filename set to /scr/ericg/b.11.3.3a/Gau-16852

 Job title: Ethane...NEDA of C-C bond


 NATURAL POPULATIONS:  Natural atomic orbital occupancies

  NAO Atom No lang   Type(AO)    Occupancy     Spin
 -----------------------------------------------------
   1    C  1  s      Cor( 1s)     1.99999     0.00000
   2    C  1  s      Val( 2s)     1.09766     0.00000
   3    C  1  s      Ryd( 3s)     0.00129     0.00000
   4    C  1  s      Ryd( 5s)     0.00001     0.00000
   5    C  1  s      Ryd( 4s)     0.00000     0.00000
   6    C  1  px     Val( 2p)     1.20061     0.00000
   7    C  1  px     Ryd( 3p)     0.00081     0.00000
   8    C  1  px     Ryd( 5p)     0.00001     0.00000
   9    C  1  px     Ryd( 4p)     0.00000     0.00000
  10    C  1  py     Val( 2p)     1.20061     0.00000
  11    C  1  py     Ryd( 3p)     0.00081     0.00000
  12    C  1  py     Ryd( 5p)     0.00001     0.00000
  13    C  1  py     Ryd( 4p)     0.00000     0.00000
  14    C  1  pz     Val( 2p)     1.07234     0.00000
  15    C  1  pz     Ryd( 3p)     0.00048     0.00000
  16    C  1  pz     Ryd( 5p)     0.00016     0.00000
  17    C  1  pz     Ryd( 4p)     0.00000     0.00000
  18    C  1  dxy    Ryd( 3d)     0.00138     0.00000
  19    C  1  dxz    Ryd( 3d)     0.00093     0.00000
  20    C  1  dyz    Ryd( 3d)     0.00093     0.00000
  21    C  1  dx2y2  Ryd( 3d)     0.00138     0.00000
  22    C  1  dz2    Ryd( 3d)     0.00109     0.00000

  23    C  2  s      Cor( 1s)     1.99999     0.00000
  24    C  2  s      Val( 2s)     1.09766     0.00000
  25    C  2  s      Ryd( 3s)     0.00129     0.00000
  26    C  2  s      Ryd( 5s)     0.00001     0.00000
  27    C  2  s      Ryd( 4s)     0.00000     0.00000
  28    C  2  px     Val( 2p)     1.20061     0.00000
  29    C  2  px     Ryd( 3p)     0.00081     0.00000
  30    C  2  px     Ryd( 5p)     0.00001     0.00000
  31    C  2  px     Ryd( 4p)     0.00000     0.00000
  32    C  2  py     Val( 2p)     1.20061     0.00000
  33    C  2  py     Ryd( 3p)     0.00081     0.00000
  34    C  2  py     Ryd( 5p)     0.00001     0.00000
  35    C  2  py     Ryd( 4p)     0.00000     0.00000
  36    C  2  pz     Val( 2p)     1.07234     0.00000
  37    C  2  pz     Ryd( 3p)     0.00048     0.00000
  38    C  2  pz     Ryd( 5p)     0.00016     0.00000
  39    C  2  pz     Ryd( 4p)     0.00000     0.00000
  40    C  2  dxy    Ryd( 3d)     0.00138     0.00000
  41    C  2  dxz    Ryd( 3d)     0.00093     0.00000
  42    C  2  dyz    Ryd( 3d)     0.00093     0.00000
  43    C  2  dx2y2  Ryd( 3d)     0.00138     0.00000
  44    C  2  dz2    Ryd( 3d)     0.00109     0.00000

  45    H  3  s      Val( 1s)     0.80472     0.00000
  46    H  3  s      Ryd( 2s)     0.00134     0.00000
  47    H  3  s      Ryd( 4s)     0.00006     0.00000
  48    H  3  s      Ryd( 3s)     0.00002     0.00000
  49    H  3  px     Ryd( 2p)     0.00006     0.00000
  50    H  3  py     Ryd( 2p)     0.00020     0.00000
  51    H  3  pz     Ryd( 2p)     0.00010     0.00000

  52    H  4  s      Val( 1s)     0.80472     0.00000
  53    H  4  s      Ryd( 2s)     0.00134     0.00000
  54    H  4  s      Ryd( 4s)     0.00006     0.00000
  55    H  4  s      Ryd( 3s)     0.00002     0.00000
  56    H  4  px     Ryd( 2p)     0.00016     0.00000
  57    H  4  py     Ryd( 2p)     0.00010     0.00000
  58    H  4  pz     Ryd( 2p)     0.00010     0.00000

  59    H  5  s      Val( 1s)     0.80472     0.00000
  60    H  5  s      Ryd( 2s)     0.00134     0.00000
  61    H  5  s      Ryd( 4s)     0.00006     0.00000
  62    H  5  s      Ryd( 3s)     0.00002     0.00000
  63    H  5  px     Ryd( 2p)     0.00016     0.00000
  64    H  5  py     Ryd( 2p)     0.00010     0.00000
  65    H  5  pz     Ryd( 2p)     0.00010     0.00000

  66    H  6  s      Val( 1s)     0.80472     0.00000
  67    H  6  s      Ryd( 2s)     0.00134     0.00000
  68    H  6  s      Ryd( 4s)     0.00006     0.00000
  69    H  6  s      Ryd( 3s)     0.00002     0.00000
  70    H  6  px     Ryd( 2p)     0.00016     0.00000
  71    H  6  py     Ryd( 2p)     0.00010     0.00000
  72    H  6  pz     Ryd( 2p)     0.00010     0.00000

  73    H  7  s      Val( 1s)     0.80472     0.00000
  74    H  7  s      Ryd( 2s)     0.00134     0.00000
  75    H  7  s      Ryd( 4s)     0.00006     0.00000
  76    H  7  s      Ryd( 3s)     0.00002     0.00000
  77    H  7  px     Ryd( 2p)     0.00006     0.00000
  78    H  7  py     Ryd( 2p)     0.00020     0.00000
  79    H  7  pz     Ryd( 2p)     0.00010     0.00000

  80    H  8  s      Val( 1s)     0.80472     0.00000
  81    H  8  s      Ryd( 2s)     0.00134     0.00000
  82    H  8  s      Ryd( 4s)     0.00006     0.00000
  83    H  8  s      Ryd( 3s)     0.00002     0.00000
  84    H  8  px     Ryd( 2p)     0.00016     0.00000
  85    H  8  py     Ryd( 2p)     0.00010     0.00000
  86    H  8  pz     Ryd( 2p)     0.00010     0.00000


 Summary of Natural Population Analysis:

                                     Natural Population                 Natural
             Natural    ---------------------------------------------    Spin
  Atom No    Charge        Core      Valence    Rydberg      Total      Density
 -------------------------------------------------------------------------------
    C  1   -0.58050      1.99999     4.57123    0.00929     6.58050     0.00000
    C  2   -0.58050      1.99999     4.57123    0.00929     6.58050     0.00000
    H  3    0.19350      0.00000     0.80472    0.00178     0.80650     0.00000
    H  4    0.19350      0.00000     0.80472    0.00178     0.80650     0.00000
    H  5    0.19350      0.00000     0.80472    0.00178     0.80650     0.00000
    H  6    0.19350      0.00000     0.80472    0.00178     0.80650     0.00000
    H  7    0.19350      0.00000     0.80472    0.00178     0.80650     0.00000
    H  8    0.19350      0.00000     0.80472    0.00178     0.80650     0.00000
 ===============================================================================
 * Total *  0.00000      3.99997    13.97079    0.02924    18.00000     0.00000

                                 Natural Population
 ---------------------------------------------------------
   Core                       3.99997 ( 99.9994% of    4)
   Valence                   13.97079 ( 99.7913% of   14)
   Natural Minimal Basis     17.97076 ( 99.8376% of   18)
   Natural Rydberg Basis      0.02924 (  0.1624% of   18)
 ---------------------------------------------------------

    Atom No         Natural Electron Configuration
 ----------------------------------------------------------------------------
      C  1      [core]2s( 1.10)2p( 3.47)3d( 0.01)
      C  2      [core]2s( 1.10)2p( 3.47)3d( 0.01)
      H  3            1s( 0.80)
      H  4            1s( 0.80)
      H  5            1s( 0.80)
      H  6            1s( 0.80)
      H  7            1s( 0.80)
      H  8            1s( 0.80)


 ***************************************************
 *******         Alpha spin orbitals         *******
 ***************************************************


 NATURAL POPULATIONS:  Natural atomic orbital occupancies

  NAO Atom No lang   Type(AO)    Occupancy      Energy
 -------------------------------------------------------
   1    C  1  s      Cor( 1s)     0.99999     -10.15877
   2    C  1  s      Val( 2s)     0.54883      -0.17629
   3    C  1  s      Ryd( 3s)     0.00065       0.96983
   4    C  1  s      Ryd( 5s)     0.00001      15.76517
   5    C  1  s      Ryd( 4s)     0.00000       7.97922
   6    C  1  px     Val( 2p)     0.60031      -0.08078
   7    C  1  px     Ryd( 3p)     0.00040       0.55470
   8    C  1  px     Ryd( 5p)     0.00000       2.73570
   9    C  1  px     Ryd( 4p)     0.00000       1.02377
  10    C  1  py     Val( 2p)     0.60031      -0.08078
  11    C  1  py     Ryd( 3p)     0.00040       0.55470
  12    C  1  py     Ryd( 5p)     0.00000       2.73570
  13    C  1  py     Ryd( 4p)     0.00000       1.02377
  14    C  1  pz     Val( 2p)     0.53617      -0.06490
  15    C  1  pz     Ryd( 3p)     0.00024       0.55721
  16    C  1  pz     Ryd( 5p)     0.00008       2.76008
  17    C  1  pz     Ryd( 4p)     0.00000       1.05925
  18    C  1  dxy    Ryd( 3d)     0.00069       1.83558
  19    C  1  dxz    Ryd( 3d)     0.00047       1.78779
  20    C  1  dyz    Ryd( 3d)     0.00047       1.78779
  21    C  1  dx2y2  Ryd( 3d)     0.00069       1.83558
  22    C  1  dz2    Ryd( 3d)     0.00055       1.98268

  23    C  2  s      Cor( 1s)     0.99999     -10.15877
  24    C  2  s      Val( 2s)     0.54883      -0.17629
  25    C  2  s      Ryd( 3s)     0.00065       0.96983
  26    C  2  s      Ryd( 5s)     0.00001      15.76517
  27    C  2  s      Ryd( 4s)     0.00000       7.97922
  28    C  2  px     Val( 2p)     0.60031      -0.08078
  29    C  2  px     Ryd( 3p)     0.00040       0.55470
  30    C  2  px     Ryd( 5p)     0.00000       2.73570
  31    C  2  px     Ryd( 4p)     0.00000       1.02377
  32    C  2  py     Val( 2p)     0.60031      -0.08078
  33    C  2  py     Ryd( 3p)     0.00040       0.55470
  34    C  2  py     Ryd( 5p)     0.00000       2.73570
  35    C  2  py     Ryd( 4p)     0.00000       1.02377
  36    C  2  pz     Val( 2p)     0.53617      -0.06490
  37    C  2  pz     Ryd( 3p)     0.00024       0.55721
  38    C  2  pz     Ryd( 5p)     0.00008       2.76008
  39    C  2  pz     Ryd( 4p)     0.00000       1.05925
  40    C  2  dxy    Ryd( 3d)     0.00069       1.83558
  41    C  2  dxz    Ryd( 3d)     0.00047       1.78779
  42    C  2  dyz    Ryd( 3d)     0.00047       1.78779
  43    C  2  dx2y2  Ryd( 3d)     0.00069       1.83558
  44    C  2  dz2    Ryd( 3d)     0.00055       1.98268

  45    H  3  s      Val( 1s)     0.40236       0.05650
  46    H  3  s      Ryd( 2s)     0.00067       0.35526
  47    H  3  s      Ryd( 4s)     0.00003       1.88623
  48    H  3  s      Ryd( 3s)     0.00001       0.73355
  49    H  3  px     Ryd( 2p)     0.00003       1.74665
  50    H  3  py     Ryd( 2p)     0.00010       2.40067
  51    H  3  pz     Ryd( 2p)     0.00005       1.82175

  52    H  4  s      Val( 1s)     0.40236       0.05650
  53    H  4  s      Ryd( 2s)     0.00067       0.35526
  54    H  4  s      Ryd( 4s)     0.00003       1.88623
  55    H  4  s      Ryd( 3s)     0.00001       0.73355
  56    H  4  px     Ryd( 2p)     0.00008       2.23716
  57    H  4  py     Ryd( 2p)     0.00005       1.91016
  58    H  4  pz     Ryd( 2p)     0.00005       1.82175

  59    H  5  s      Val( 1s)     0.40236       0.05650
  60    H  5  s      Ryd( 2s)     0.00067       0.35526
  61    H  5  s      Ryd( 4s)     0.00003       1.88623
  62    H  5  s      Ryd( 3s)     0.00001       0.73355
  63    H  5  px     Ryd( 2p)     0.00008       2.23716
  64    H  5  py     Ryd( 2p)     0.00005       1.91016
  65    H  5  pz     Ryd( 2p)     0.00005       1.82175

  66    H  6  s      Val( 1s)     0.40236       0.05650
  67    H  6  s      Ryd( 2s)     0.00067       0.35526
  68    H  6  s      Ryd( 4s)     0.00003       1.88623
  69    H  6  s      Ryd( 3s)     0.00001       0.73355
  70    H  6  px     Ryd( 2p)     0.00008       2.23716
  71    H  6  py     Ryd( 2p)     0.00005       1.91016
  72    H  6  pz     Ryd( 2p)     0.00005       1.82175

  73    H  7  s      Val( 1s)     0.40236       0.05650
  74    H  7  s      Ryd( 2s)     0.00067       0.35526
  75    H  7  s      Ryd( 4s)     0.00003       1.88623
  76    H  7  s      Ryd( 3s)     0.00001       0.73355
  77    H  7  px     Ryd( 2p)     0.00003       1.74665
  78    H  7  py     Ryd( 2p)     0.00010       2.40067
  79    H  7  pz     Ryd( 2p)     0.00005       1.82175

  80    H  8  s      Val( 1s)     0.40236       0.05650
  81    H  8  s      Ryd( 2s)     0.00067       0.35526
  82    H  8  s      Ryd( 4s)     0.00003       1.88623
  83    H  8  s      Ryd( 3s)     0.00001       0.73355
  84    H  8  px     Ryd( 2p)     0.00008       2.23716
  85    H  8  py     Ryd( 2p)     0.00005       1.91016
  86    H  8  pz     Ryd( 2p)     0.00005       1.82175


 Summary of Natural Population Analysis:

                                     Natural Population
             Natural    ---------------------------------------------
  Atom No    Charge        Core      Valence    Rydberg      Total
 --------------------------------------------------------------------
    C  1   -0.29025      0.99999     2.28561    0.00464     3.29025
    C  2   -0.29025      0.99999     2.28561    0.00464     3.29025
    H  3    0.09675      0.00000     0.40236    0.00089     0.40325
    H  4    0.09675      0.00000     0.40236    0.00089     0.40325
    H  5    0.09675      0.00000     0.40236    0.00089     0.40325
    H  6    0.09675      0.00000     0.40236    0.00089     0.40325
    H  7    0.09675      0.00000     0.40236    0.00089     0.40325
    H  8    0.09675      0.00000     0.40236    0.00089     0.40325
 ====================================================================
 * Total *  0.00000      1.99999     6.98539    0.01462     9.00000

                                 Natural Population
 ---------------------------------------------------------
   Core                       1.99999 ( 99.9994% of    2)
   Valence                    6.98539 ( 99.7913% of    7)
   Natural Minimal Basis      8.98538 ( 99.8376% of    9)
   Natural Rydberg Basis      0.01462 (  0.1624% of    9)
 ---------------------------------------------------------

    Atom No         Natural Electron Configuration
 ----------------------------------------------------------------------------
      C  1      [core]2s( 0.55)2p( 1.74)
      C  2      [core]2s( 0.55)2p( 1.74)
      H  3            1s( 0.40)
      H  4            1s( 0.40)
      H  5            1s( 0.40)
      H  6            1s( 0.40)
      H  7            1s( 0.40)
      H  8            1s( 0.40)


 NATURAL BOND ORBITAL ANALYSIS, alpha spin orbitals:

 User-requested molecular units:
   1. <C1,H3,H4,H5>
   2. <C2,H6,H7,H8>

                            Occupancies       Lewis Structure    Low   High
         Max    Occ     -------------------  -----------------   occ   occ
  Cycle  Ctr   Thresh    Lewis   non-Lewis     CR  BD  nC  LP    (L)   (NL)
 ============================================================================
    1     2     0.95     8.46937   0.53063      2   6   0   1     1      1
 ----------------------------------------------------------------------------

 Strongly delocalized structure accepted

 -------------------------------------------------------
   Core                      1.99999 ( 99.999% of   2)
   Valence Lewis             6.46938 ( 92.420% of   7)
  ==================      =============================
   Total Lewis               8.46937 ( 94.104% of   9)
  -----------------------------------------------------
   Valence non-Lewis         0.52353 (  5.817% of   9)
   Rydberg non-Lewis         0.00710 (  0.079% of   9)
  ==================      =============================
   Total non-Lewis           0.53063 (  5.896% of   9)
 -------------------------------------------------------


     (Occupancy)   Bond orbital / Coefficients / Hybrids
 ------------------ Lewis ------------------------------------------------------
   1. (0.99999) CR ( 1) C  1            s(100.00%)
                                         1.0000  0.0000  0.0000  0.0000  0.0000
                                         0.0000  0.0000  0.0000  0.0000  0.0000
                                         0.0000  0.0000  0.0000  0.0000  0.0000
                                         0.0000  0.0000  0.0000  0.0000  0.0000
                                         0.0000  0.0000
   2. (0.99999) CR ( 1) C  2            s(100.00%)
                                         1.0000  0.0000  0.0000  0.0000  0.0000
                                         0.0000  0.0000  0.0000  0.0000  0.0000
                                         0.0000  0.0000  0.0000  0.0000  0.0000
                                         0.0000  0.0000  0.0000  0.0000  0.0000
                                         0.0000  0.0000
   3. (0.49863) LP ( 1) C  1            s( 32.22%)p 2.10( 67.72%)d 0.00(  0.06%)
                                         0.0000  0.5668 -0.0300 -0.0004  0.0000
                                         0.0000  0.0000  0.0000  0.0000  0.0000
                                         0.0000  0.0000  0.0000 -0.8228 -0.0147
                                         0.0007 -0.0008  0.0000  0.0000  0.0000
                                         0.0000  0.0239
   4. (0.99513) BD ( 1) C  1- H  3
               ( 59.81%)   0.7734* C  1 s( 22.63%)p 3.41( 77.23%)d 0.01(  0.13%)
                                         0.0000  0.4756  0.0100  0.0001  0.0000
                                         0.0000  0.0000  0.0000  0.0000  0.8157
                                        -0.0083  0.0002 -0.0004  0.3268  0.0071
                                        -0.0004  0.0005  0.0000  0.0000  0.0212
                                        -0.0275 -0.0117
               ( 40.19%)   0.6340* H  3 s( 99.98%)p 0.00(  0.02%)
                                         0.9999 -0.0012 -0.0007  0.0000  0.0000
                                        -0.0116 -0.0049
   5. (0.99513) BD ( 1) C  1- H  4
               ( 59.81%)   0.7734* C  1 s( 22.63%)p 3.41( 77.23%)d 0.01(  0.13%)
                                         0.0000  0.4756  0.0100  0.0001  0.0000
                                        -0.7064  0.0071 -0.0002  0.0003 -0.4079
                                         0.0041 -0.0001  0.0002  0.3268  0.0071
                                        -0.0004  0.0005  0.0238 -0.0183 -0.0106
                                         0.0138 -0.0117
               ( 40.19%)   0.6340* H  4 s( 99.98%)p 0.00(  0.02%)
                                         0.9999 -0.0012 -0.0007  0.0000  0.0101
                                         0.0058 -0.0049
   6. (0.99513) BD ( 1) C  1- H  5
               ( 59.81%)   0.7734* C  1 s( 22.63%)p 3.41( 77.23%)d 0.01(  0.13%)
                                         0.0000  0.4756  0.0100  0.0001  0.0000
                                         0.7064 -0.0071  0.0002 -0.0003 -0.4079
                                         0.0041 -0.0001  0.0002  0.3268  0.0071
                                        -0.0004  0.0005 -0.0238  0.0183 -0.0106
                                         0.0138 -0.0117
               ( 40.19%)   0.6340* H  5 s( 99.98%)p 0.00(  0.02%)
                                         0.9999 -0.0012 -0.0007  0.0000 -0.0101
                                         0.0058 -0.0049
   7. (0.99513) BD ( 1) C  2- H  6
               ( 59.81%)   0.7734* C  2 s( 22.63%)p 3.41( 77.23%)d 0.01(  0.13%)
                                         0.0000  0.4756  0.0100  0.0001  0.0000
                                         0.7064 -0.0071  0.0002 -0.0003  0.4079
                                        -0.0041  0.0001 -0.0002 -0.3268 -0.0071
                                         0.0004 -0.0005  0.0238 -0.0183 -0.0106
                                         0.0138 -0.0117
               ( 40.19%)   0.6340* H  6 s( 99.98%)p 0.00(  0.02%)
                                         0.9999 -0.0012 -0.0007  0.0000 -0.0101
                                        -0.0058  0.0049
   8. (0.99513) BD ( 1) C  2- H  7
               ( 59.81%)   0.7734* C  2 s( 22.63%)p 3.41( 77.23%)d 0.01(  0.13%)
                                         0.0000  0.4756  0.0100  0.0001  0.0000
                                         0.0000  0.0000  0.0000  0.0000 -0.8157
                                         0.0083 -0.0002  0.0004 -0.3268 -0.0071
                                         0.0004 -0.0005  0.0000  0.0000  0.0212
                                        -0.0275 -0.0117
               ( 40.19%)   0.6340* H  7 s( 99.98%)p 0.00(  0.02%)
                                         0.9999 -0.0012 -0.0007  0.0000  0.0000
                                         0.0116  0.0049
   9. (0.99513) BD ( 1) C  2- H  8
               ( 59.81%)   0.7734* C  2 s( 22.63%)p 3.41( 77.23%)d 0.01(  0.13%)
                                         0.0000  0.4756  0.0100  0.0001  0.0000
                                        -0.7064  0.0071 -0.0002  0.0003  0.4079
                                        -0.0041  0.0001 -0.0002 -0.3268 -0.0071
                                         0.0004 -0.0005 -0.0238  0.0183 -0.0106
                                         0.0138 -0.0117
               ( 40.19%)   0.6340* H  8 s( 99.98%)p 0.00(  0.02%)
                                         0.9999 -0.0012 -0.0007  0.0000  0.0101
                                        -0.0058  0.0049
 ---------------- non-Lewis ----------------------------------------------------
  10. (0.49863) LV ( 1) C  2            s( 32.22%)p 2.10( 67.72%)d 0.00(  0.06%)
                                         0.0000  0.5668 -0.0300 -0.0004  0.0000
                                         0.0000  0.0000  0.0000  0.0000  0.0000
                                         0.0000  0.0000  0.0000  0.8228  0.0147
                                        -0.0007  0.0008  0.0000  0.0000  0.0000
                                         0.0000  0.0239
  11. (0.00415) BD*( 1) C  1- H  3
               ( 40.19%)   0.6340* C  1 s( 22.63%)p 3.41( 77.23%)d 0.01(  0.13%)
                                         0.0000 -0.4756 -0.0100 -0.0001  0.0000
                                         0.0000  0.0000  0.0000  0.0000 -0.8157
                                         0.0083 -0.0002  0.0004 -0.3268 -0.0071
                                         0.0004 -0.0005  0.0000  0.0000 -0.0212
                                         0.0275  0.0117
               ( 59.81%)  -0.7734* H  3 s( 99.98%)p 0.00(  0.02%)
                                        -0.9999  0.0012  0.0007  0.0000  0.0000
                                         0.0116  0.0049
  12. (0.00415) BD*( 1) C  1- H  4
               ( 40.19%)   0.6340* C  1 s( 22.63%)p 3.41( 77.23%)d 0.01(  0.13%)
                                         0.0000 -0.4756 -0.0100 -0.0001  0.0000
                                         0.7064 -0.0071  0.0002 -0.0003  0.4079
                                        -0.0041  0.0001 -0.0002 -0.3268 -0.0071
                                         0.0004 -0.0005 -0.0238  0.0183  0.0106
                                        -0.0138  0.0117
               ( 59.81%)  -0.7734* H  4 s( 99.98%)p 0.00(  0.02%)
                                        -0.9999  0.0012  0.0007  0.0000 -0.0101
                                        -0.0058  0.0049
  13. (0.00415) BD*( 1) C  1- H  5
               ( 40.19%)   0.6340* C  1 s( 22.63%)p 3.41( 77.23%)d 0.01(  0.13%)
                                         0.0000 -0.4756 -0.0100 -0.0001  0.0000
                                        -0.7064  0.0071 -0.0002  0.0003  0.4079
                                        -0.0041  0.0001 -0.0002 -0.3268 -0.0071
                                         0.0004 -0.0005  0.0238 -0.0183  0.0106
                                        -0.0138  0.0117
               ( 59.81%)  -0.7734* H  5 s( 99.98%)p 0.00(  0.02%)
                                        -0.9999  0.0012  0.0007  0.0000  0.0101
                                        -0.0058  0.0049
  14. (0.00415) BD*( 1) C  2- H  6
               ( 40.19%)   0.6340* C  2 s( 22.63%)p 3.41( 77.23%)d 0.01(  0.13%)
                                         0.0000 -0.4756 -0.0100 -0.0001  0.0000
                                        -0.7064  0.0071 -0.0002  0.0003 -0.4079
                                         0.0041 -0.0001  0.0002  0.3268  0.0071
                                        -0.0004  0.0005 -0.0238  0.0183  0.0106
                                        -0.0138  0.0117
               ( 59.81%)  -0.7734* H  6 s( 99.98%)p 0.00(  0.02%)
                                        -0.9999  0.0012  0.0007  0.0000  0.0101
                                         0.0058 -0.0049
  15. (0.00415) BD*( 1) C  2- H  7
               ( 40.19%)   0.6340* C  2 s( 22.63%)p 3.41( 77.23%)d 0.01(  0.13%)
                                         0.0000 -0.4756 -0.0100 -0.0001  0.0000
                                         0.0000  0.0000  0.0000  0.0000  0.8157
                                        -0.0083  0.0002 -0.0004  0.3268  0.0071
                                        -0.0004  0.0005  0.0000  0.0000 -0.0212
                                         0.0275  0.0117
               ( 59.81%)  -0.7734* H  7 s( 99.98%)p 0.00(  0.02%)
                                        -0.9999  0.0012  0.0007  0.0000  0.0000
                                        -0.0116 -0.0049
  16. (0.00415) BD*( 1) C  2- H  8
               ( 40.19%)   0.6340* C  2 s( 22.63%)p 3.41( 77.23%)d 0.01(  0.13%)
                                         0.0000 -0.4756 -0.0100 -0.0001  0.0000
                                         0.7064 -0.0071  0.0002 -0.0003 -0.4079
                                         0.0041 -0.0001  0.0002  0.3268  0.0071
                                        -0.0004  0.0005  0.0238 -0.0183  0.0106
                                        -0.0138  0.0117
               ( 59.81%)  -0.7734* H  8 s( 99.98%)p 0.00(  0.02%)
                                        -0.9999  0.0012  0.0007  0.0000 -0.0101
                                         0.0058 -0.0049
  17. (0.00047) RY ( 1) C  1            s(  0.00%)p 1.00( 78.28%)d 0.28( 21.72%)
                                         0.0000  0.0000  0.0000  0.0000  0.0000
                                         0.0000  0.0000  0.0000  0.0000  0.0263
                                         0.8802  0.0836 -0.0190  0.0000  0.0000
                                         0.0000  0.0000  0.0000  0.0000 -0.4266
                                         0.1878  0.0000
  18. (0.00047) RY ( 2) C  1            s(  0.00%)p 1.00( 78.28%)d 0.28( 21.72%)
                                         0.0000  0.0000  0.0000  0.0000  0.0000
                                         0.0263  0.8802  0.0836 -0.0190  0.0000
                                         0.0000  0.0000  0.0000  0.0000  0.0000
                                         0.0000  0.0000  0.1878 -0.4266  0.0000
                                         0.0000  0.0000
  19. (0.00014) RY ( 3) C  1            s( 12.11%)p 6.81( 82.50%)d 0.44(  5.39%)
                                         0.0000  0.0005  0.2831 -0.2024  0.0023
                                         0.0000  0.0000  0.0000  0.0000  0.0000
                                         0.0000  0.0000  0.0000 -0.0130  0.5111
                                        -0.7504 -0.0219  0.0000  0.0000  0.0000
                                         0.0000  0.2322
  20. (0.00000) RY ( 4) C  1            s( 85.12%)p 0.15( 12.62%)d 0.03(  2.26%)
  21. (0.00000) RY ( 5) C  1            s( 12.04%)p 4.08( 49.15%)d 3.22( 38.81%)
  22. (0.00000) RY ( 6) C  1            s( 92.70%)p 0.05(  4.98%)d 0.03(  2.32%)
  23. (0.00000) RY ( 7) C  1            s( 63.47%)p 0.50( 31.87%)d 0.07(  4.66%)
  24. (0.00000) RY ( 8) C  1            s( 18.13%)p 4.27( 77.47%)d 0.24(  4.40%)
  25. (0.00000) RY ( 9) C  1            s(  2.23%)p40.28( 89.93%)d 3.51(  7.84%)
  26. (0.00000) RY (10) C  1            s(  3.59%)p26.13( 93.86%)d 0.71(  2.55%)
  27. (0.00000) RY (11) C  1            s(  7.01%)p11.59( 81.25%)d 1.68( 11.75%)
  28. (0.00000) RY (12) C  1            s(  0.98%)p82.50( 80.87%)d18.52( 18.15%)
  29. (0.00000) RY (13) C  1            s(  0.95%)p28.03( 26.50%)d76.74( 72.56%)
  30. (0.00000) RY (14) C  1            s(  0.58%)p99.99( 60.15%)d67.20( 39.26%)
  31. (0.00000) RY (15) C  1            s(  0.25%)p52.10( 12.98%)d99.99( 86.77%)
  32. (0.00000) RY (16) C  1            s(  0.40%)p49.05( 19.62%)d99.99( 79.98%)
  33. (0.00000) RY (17) C  1            s(  0.32%)p64.06( 20.29%)d99.99( 79.39%)
  34. (0.00047) RY ( 1) C  2            s(  0.00%)p 1.00( 78.28%)d 0.28( 21.72%)
                                         0.0000  0.0000  0.0000  0.0000  0.0000
                                         0.0000  0.0000  0.0000  0.0000  0.0263
                                         0.8802  0.0836 -0.0190  0.0000  0.0000
                                         0.0000  0.0000  0.0000  0.0000  0.4266
                                        -0.1878  0.0000
  35. (0.00047) RY ( 2) C  2            s(  0.00%)p 1.00( 78.28%)d 0.28( 21.72%)
                                         0.0000  0.0000  0.0000  0.0000  0.0000
                                         0.0263  0.8802  0.0836 -0.0190  0.0000
                                         0.0000  0.0000  0.0000  0.0000  0.0000
                                         0.0000  0.0000 -0.1878  0.4266  0.0000
                                         0.0000  0.0000
  36. (0.00014) RY ( 3) C  2            s( 12.11%)p 6.81( 82.50%)d 0.44(  5.39%)
                                         0.0000  0.0005  0.2831 -0.2024  0.0023
                                         0.0000  0.0000  0.0000  0.0000  0.0000
                                         0.0000  0.0000  0.0000  0.0130 -0.5111
                                         0.7504  0.0219  0.0000  0.0000  0.0000
                                         0.0000  0.2322
  37. (0.00000) RY ( 4) C  2            s( 85.12%)p 0.15( 12.62%)d 0.03(  2.26%)
  38. (0.00000) RY ( 5) C  2            s( 12.04%)p 4.08( 49.15%)d 3.22( 38.81%)
  39. (0.00000) RY ( 6) C  2            s( 89.99%)p 0.11(  9.94%)d 0.00(  0.07%)
  40. (0.00000) RY ( 7) C  2            s( 90.03%)p 0.10(  9.02%)d 0.01(  0.95%)
  41. (0.00000) RY ( 8) C  2            s(  5.52%)p15.80( 87.22%)d 1.32(  7.26%)
  42. (0.00000) RY ( 9) C  2            s(  2.92%)p29.64( 86.53%)d 3.61( 10.55%)
  43. (0.00000) RY (10) C  2            s(  0.71%)p90.54( 64.01%)d49.90( 35.28%)
  44. (0.00000) RY (11) C  2            s(  0.35%)p99.99( 82.35%)d49.32( 17.30%)
  45. (0.00000) RY (12) C  2            s(  0.83%)p95.46( 79.51%)d23.61( 19.66%)
  46. (0.00000) RY (13) C  2            s(  0.08%)p99.99( 78.66%)d99.99( 21.25%)
  47. (0.00000) RY (14) C  2            s(  0.10%)p99.99( 13.77%)d99.99( 86.13%)
  48. (0.00000) RY (15) C  2            s(  0.05%)p99.99(  4.71%)d99.99( 95.24%)
  49. (0.00000) RY (16) C  2            s(  0.03%)p99.99( 26.20%)d99.99( 73.77%)
  50. (0.00000) RY (17) C  2            s(  0.01%)p 1.00( 57.83%)d 0.73( 42.16%)
  51. (0.00071) RY ( 1) H  3            s( 94.43%)p 0.06(  5.57%)
                                         0.0038  0.9718 -0.0040  0.0020  0.0000
                                         0.1520  0.1805
  52. (0.00006) RY ( 2) H  3            s( 48.12%)p 1.08( 51.88%)
  53. (0.00003) RY ( 3) H  3            s(  0.00%)p 1.00(100.00%)
  54. (0.00003) RY ( 4) H  3            s( 54.25%)p 0.84( 45.75%)
  55. (0.00000) RY ( 5) H  3            s( 46.60%)p 1.15( 53.40%)
  56. (0.00000) RY ( 6) H  3            s( 56.62%)p 0.77( 43.38%)
  57. (0.00071) RY ( 1) H  4            s( 94.43%)p 0.06(  5.57%)
                                         0.0038  0.9718 -0.0040  0.0020 -0.1316
                                        -0.0760  0.1805
  58. (0.00006) RY ( 2) H  4            s( 48.12%)p 1.08( 51.88%)
  59. (0.00003) RY ( 3) H  4            s(  0.00%)p 1.00(100.00%)
  60. (0.00003) RY ( 4) H  4            s( 54.25%)p 0.84( 45.75%)
  61. (0.00000) RY ( 5) H  4            s( 46.60%)p 1.15( 53.40%)
  62. (0.00000) RY ( 6) H  4            s( 56.62%)p 0.77( 43.38%)
  63. (0.00071) RY ( 1) H  5            s( 94.43%)p 0.06(  5.57%)
                                         0.0038  0.9718 -0.0040  0.0020  0.1316
                                        -0.0760  0.1805
  64. (0.00006) RY ( 2) H  5            s( 48.12%)p 1.08( 51.88%)
  65. (0.00003) RY ( 3) H  5            s(  0.00%)p 1.00(100.00%)
  66. (0.00003) RY ( 4) H  5            s( 54.25%)p 0.84( 45.75%)
  67. (0.00000) RY ( 5) H  5            s( 46.60%)p 1.15( 53.40%)
  68. (0.00000) RY ( 6) H  5            s( 56.62%)p 0.77( 43.38%)
  69. (0.00071) RY ( 1) H  6            s( 94.43%)p 0.06(  5.57%)
                                         0.0038  0.9718 -0.0040  0.0020  0.1316
                                         0.0760 -0.1805
  70. (0.00006) RY ( 2) H  6            s( 48.12%)p 1.08( 51.88%)
  71. (0.00003) RY ( 3) H  6            s(  0.00%)p 1.00(100.00%)
  72. (0.00003) RY ( 4) H  6            s( 54.25%)p 0.84( 45.75%)
  73. (0.00000) RY ( 5) H  6            s( 46.60%)p 1.15( 53.40%)
  74. (0.00000) RY ( 6) H  6            s( 56.62%)p 0.77( 43.38%)
  75. (0.00071) RY ( 1) H  7            s( 94.43%)p 0.06(  5.57%)
                                         0.0038  0.9718 -0.0040  0.0020  0.0000
                                        -0.1520 -0.1805
  76. (0.00006) RY ( 2) H  7            s( 48.12%)p 1.08( 51.88%)
  77. (0.00003) RY ( 3) H  7            s(  0.00%)p 1.00(100.00%)
  78. (0.00003) RY ( 4) H  7            s( 54.25%)p 0.84( 45.75%)
  79. (0.00000) RY ( 5) H  7            s( 46.60%)p 1.15( 53.40%)
  80. (0.00000) RY ( 6) H  7            s( 56.62%)p 0.77( 43.38%)
  81. (0.00071) RY ( 1) H  8            s( 94.43%)p 0.06(  5.57%)
                                         0.0038  0.9718 -0.0040  0.0020 -0.1316
                                         0.0760 -0.1805
  82. (0.00006) RY ( 2) H  8            s( 48.12%)p 1.08( 51.88%)
  83. (0.00003) RY ( 3) H  8            s(  0.00%)p 1.00(100.00%)
  84. (0.00003) RY ( 4) H  8            s( 54.25%)p 0.84( 45.75%)
  85. (0.00000) RY ( 5) H  8            s( 46.60%)p 1.15( 53.40%)
  86. (0.00000) RY ( 6) H  8            s( 56.62%)p 0.77( 43.38%)


 NHO DIRECTIONALITY AND BOND BENDING (deviation from line of nuclear centers at
                                      the position of maximum hybrid amplitude)

         [Thresholds for printing:  angular deviation  >  1.0 degree]
                                    p- or d-character  > 25.0%
                                    orbital occupancy  >  0.10e

                        Line of Centers        Hybrid 1             Hybrid 2
                        ---------------  -------------------  ------------------
           NBO            Theta   Phi    Theta   Phi    Dev   Theta   Phi    Dev
 ===============================================================================


 SECOND ORDER PERTURBATION THEORY ANALYSIS OF FOCK MATRIX IN NBO BASIS

     Threshold for printing:   0.25 kcal/mol
    (Intermolecular threshold: 0.03 kcal/mol)
                                                          E(2) E(NL)-E(L) F(L,NL)
      Donor (L) NBO              Acceptor (NL) NBO      kcal/mol   a.u.    a.u.
 ===============================================================================

 within unit  1
    3. LP ( 1) C  1            11. BD*( 1) C  1- H  3      0.67    0.48   0.023
    3. LP ( 1) C  1            12. BD*( 1) C  1- H  4      0.67    0.48   0.023
    3. LP ( 1) C  1            13. BD*( 1) C  1- H  5      0.67    0.48   0.023
    3. LP ( 1) C  1            20. RY ( 4) C  1            0.31    4.64   0.048
    3. LP ( 1) C  1            21. RY ( 5) C  1            5.39    1.98   0.130
    3. LP ( 1) C  1            22. RY ( 6) C  1            0.74    1.89   0.047
    3. LP ( 1) C  1            23. RY ( 7) C  1            0.87   12.62   0.132
    3. LP ( 1) C  1            24. RY ( 8) C  1            0.43    4.28   0.054
    3. LP ( 1) C  1            25. RY ( 9) C  1            0.65    0.96   0.032
    3. LP ( 1) C  1            51. RY ( 1) H  3            2.46    0.58   0.048
    3. LP ( 1) C  1            54. RY ( 4) H  3            0.32    1.11   0.024
    3. LP ( 1) C  1            57. RY ( 1) H  4            2.46    0.58   0.048
    3. LP ( 1) C  1            60. RY ( 4) H  4            0.32    1.11   0.024
    3. LP ( 1) C  1            63. RY ( 1) H  5            2.46    0.58   0.048
    3. LP ( 1) C  1            66. RY ( 4) H  5            0.32    1.11   0.024

 from unit  1 to unit  2
    3. LP ( 1) C  1            14. BD*( 1) C  2- H  6      0.04    0.48   0.006
    3. LP ( 1) C  1            15. BD*( 1) C  2- H  7      0.04    0.48   0.006
    3. LP ( 1) C  1            16. BD*( 1) C  2- H  8      0.04    0.48   0.006
    3. LP ( 1) C  1            36. RY ( 3) C  2            0.05    3.19   0.016
    3. LP ( 1) C  1            37. RY ( 4) C  2            0.37    4.64   0.053
    3. LP ( 1) C  1            38. RY ( 5) C  2            6.35    1.98   0.141
    3. LP ( 1) C  1            39. RY ( 6) C  2            0.97   13.11   0.142
    3. LP ( 1) C  1            40. RY ( 7) C  2            1.37    5.83   0.113
    3. LP ( 1) C  1            41. RY ( 8) C  2            1.06    1.08   0.043
    3. LP ( 1) C  1            43. RY (10) C  2            0.32    1.49   0.027
    3. LP ( 1) C  1            69. RY ( 1) H  6            0.16    0.58   0.012
    3. LP ( 1) C  1            72. RY ( 4) H  6            0.07    1.11   0.011
    3. LP ( 1) C  1            74. RY ( 6) H  6            0.11    1.29   0.015
    3. LP ( 1) C  1            75. RY ( 1) H  7            0.16    0.58   0.012
    3. LP ( 1) C  1            78. RY ( 4) H  7            0.07    1.11   0.011
    3. LP ( 1) C  1            80. RY ( 6) H  7            0.11    1.29   0.015
    3. LP ( 1) C  1            81. RY ( 1) H  8            0.16    0.58   0.012
    3. LP ( 1) C  1            84. RY ( 4) H  8            0.07    1.11   0.011
    3. LP ( 1) C  1            86. RY ( 6) H  8            0.11    1.29   0.015
    4. BD ( 1) C  1- H  3      10. LV ( 1) C  2            4.80    0.39   0.054
    4. BD ( 1) C  1- H  3      14. BD*( 1) C  2- H  6      0.11    0.87   0.013
    4. BD ( 1) C  1- H  3      15. BD*( 1) C  2- H  7      1.31    0.87   0.043
    4. BD ( 1) C  1- H  3      16. BD*( 1) C  2- H  8      0.11    0.87   0.013
    4. BD ( 1) C  1- H  3      34. RY ( 1) C  2            0.27    1.16   0.022
    4. BD ( 1) C  1- H  3      36. RY ( 3) C  2            0.11    3.58   0.025
    4. BD ( 1) C  1- H  3      38. RY ( 5) C  2            0.03    2.36   0.011
    5. BD ( 1) C  1- H  4      10. LV ( 1) C  2            4.80    0.39   0.054
    5. BD ( 1) C  1- H  4      14. BD*( 1) C  2- H  6      1.31    0.87   0.043
    5. BD ( 1) C  1- H  4      15. BD*( 1) C  2- H  7      0.11    0.87   0.013
    5. BD ( 1) C  1- H  4      16. BD*( 1) C  2- H  8      0.11    0.87   0.013
    5. BD ( 1) C  1- H  4      34. RY ( 1) C  2            0.07    1.16   0.011
    5. BD ( 1) C  1- H  4      35. RY ( 2) C  2            0.20    1.16   0.019
    5. BD ( 1) C  1- H  4      36. RY ( 3) C  2            0.11    3.58   0.025
    5. BD ( 1) C  1- H  4      38. RY ( 5) C  2            0.03    2.36   0.011
    6. BD ( 1) C  1- H  5      10. LV ( 1) C  2            4.80    0.39   0.054
    6. BD ( 1) C  1- H  5      14. BD*( 1) C  2- H  6      0.11    0.87   0.013
    6. BD ( 1) C  1- H  5      15. BD*( 1) C  2- H  7      0.11    0.87   0.013
    6. BD ( 1) C  1- H  5      16. BD*( 1) C  2- H  8      1.31    0.87   0.043
    6. BD ( 1) C  1- H  5      34. RY ( 1) C  2            0.07    1.16   0.011
    6. BD ( 1) C  1- H  5      35. RY ( 2) C  2            0.20    1.16   0.019
    6. BD ( 1) C  1- H  5      36. RY ( 3) C  2            0.11    3.58   0.025
    6. BD ( 1) C  1- H  5      38. RY ( 5) C  2            0.03    2.36   0.011

 from unit  2 to unit  1
    7. BD ( 1) C  2- H  6      11. BD*( 1) C  1- H  3      0.11    0.87   0.013
    7. BD ( 1) C  2- H  6      12. BD*( 1) C  1- H  4      1.31    0.87   0.043
    7. BD ( 1) C  2- H  6      13. BD*( 1) C  1- H  5      0.11    0.87   0.013
    7. BD ( 1) C  2- H  6      17. RY ( 1) C  1            0.07    1.16   0.011
    7. BD ( 1) C  2- H  6      18. RY ( 2) C  1            0.20    1.16   0.019
    7. BD ( 1) C  2- H  6      19. RY ( 3) C  1            0.11    3.58   0.025
    7. BD ( 1) C  2- H  6      21. RY ( 5) C  1            0.03    2.36   0.011
    8. BD ( 1) C  2- H  7      11. BD*( 1) C  1- H  3      1.31    0.87   0.043
    8. BD ( 1) C  2- H  7      12. BD*( 1) C  1- H  4      0.11    0.87   0.013
    8. BD ( 1) C  2- H  7      13. BD*( 1) C  1- H  5      0.11    0.87   0.013
    8. BD ( 1) C  2- H  7      17. RY ( 1) C  1            0.27    1.16   0.022
    8. BD ( 1) C  2- H  7      19. RY ( 3) C  1            0.11    3.58   0.025
    8. BD ( 1) C  2- H  7      21. RY ( 5) C  1            0.03    2.36   0.011
    9. BD ( 1) C  2- H  8      11. BD*( 1) C  1- H  3      0.11    0.87   0.013
    9. BD ( 1) C  2- H  8      12. BD*( 1) C  1- H  4      0.11    0.87   0.013
    9. BD ( 1) C  2- H  8      13. BD*( 1) C  1- H  5      1.31    0.87   0.043
    9. BD ( 1) C  2- H  8      17. RY ( 1) C  1            0.07    1.16   0.011
    9. BD ( 1) C  2- H  8      18. RY ( 2) C  1            0.20    1.16   0.019
    9. BD ( 1) C  2- H  8      19. RY ( 3) C  1            0.11    3.58   0.025
    9. BD ( 1) C  2- H  8      21. RY ( 5) C  1            0.03    2.36   0.011

 within unit  2
    7. BD ( 1) C  2- H  6      10. LV ( 1) C  2            4.65    0.39   0.054
    8. BD ( 1) C  2- H  7      10. LV ( 1) C  2            4.65    0.39   0.054
    9. BD ( 1) C  2- H  8      10. LV ( 1) C  2            4.65    0.39   0.054


 NATURAL BOND ORBITALS (Summary):

                                                     Principal Delocalizations
           NBO                 Occupancy    Energy   (geminal,vicinal,remote)
 ===============================================================================
 Molecular unit  1  (CH3)
 ------ Lewis --------------------------------------
    1. CR ( 1) C  1             0.99999   -10.15877
    3. LP ( 1) C  1             0.49863    -0.07173  38(r),21(g),51(v),57(v)
                                                     63(v),40(r),41(r),39(r)
                                                     23(g),22(g),11(g),12(g)
                                                     13(g),25(g),24(g),37(r)
                                                     54(v),60(v),66(v),43(r)
                                                     20(g),69(r),75(r),81(r)
                                                     74(r),80(r),86(r),72(r)
                                                     78(r),84(r),36(r),14(r)
                                                     15(r),16(r)
    4. BD ( 1) C  1- H  3       0.99513    -0.45887  10(r),15(r),34(r),14(r)
                                                     16(r),36(r),38(r)
    5. BD ( 1) C  1- H  4       0.99513    -0.45887  10(r),14(r),35(r),15(r)
                                                     16(r),36(r),34(r),38(r)
    6. BD ( 1) C  1- H  5       0.99513    -0.45887  10(r),16(r),35(r),14(r)
                                                     15(r),36(r),34(r),38(r)
 ------ non-Lewis ----------------------------------
   11. BD*( 1) C  1- H  3       0.00415     0.41059
   12. BD*( 1) C  1- H  4       0.00415     0.41059
   13. BD*( 1) C  1- H  5       0.00415     0.41059
   17. RY ( 1) C  1             0.00047     0.70129
   18. RY ( 2) C  1             0.00047     0.70128
   19. RY ( 3) C  1             0.00014     3.12158
   20. RY ( 4) C  1             0.00000     4.57038
   21. RY ( 5) C  1             0.00000     1.90385
   22. RY ( 6) C  1             0.00000     1.81894
   23. RY ( 7) C  1             0.00000    12.54367
   24. RY ( 8) C  1             0.00000     4.21130
   25. RY ( 9) C  1             0.00000     0.89282
   26. RY (10) C  1             0.00000     3.25607
   27. RY (11) C  1             0.00000     1.31670
   28. RY (12) C  1             0.00000     2.30363
   29. RY (13) C  1             0.00000     2.21179
   30. RY (14) C  1             0.00000     2.16052
   31. RY (15) C  1             0.00000     1.71787
   32. RY (16) C  1             0.00000     1.76103
   33. RY (17) C  1             0.00000     1.74310
   51. RY ( 1) H  3             0.00071     0.50430
   52. RY ( 2) H  3             0.00006     2.19721
   53. RY ( 3) H  3             0.00003     1.74665
   54. RY ( 4) H  3             0.00003     1.03742
   55. RY ( 5) H  3             0.00000     2.23398
   56. RY ( 6) H  3             0.00000     1.22321
   57. RY ( 1) H  4             0.00071     0.50430
   58. RY ( 2) H  4             0.00006     2.19722
   59. RY ( 3) H  4             0.00003     1.74665
   60. RY ( 4) H  4             0.00003     1.03742
   61. RY ( 5) H  4             0.00000     2.23398
   62. RY ( 6) H  4             0.00000     1.22321
   63. RY ( 1) H  5             0.00071     0.50430
   64. RY ( 2) H  5             0.00006     2.19722
   65. RY ( 3) H  5             0.00003     1.74665
   66. RY ( 4) H  5             0.00003     1.03742
   67. RY ( 5) H  5             0.00000     2.23398
   68. RY ( 6) H  5             0.00000     1.22321
          -------------------------------
                 Total Lewis    4.48400  ( 99.6444%)
           Valence non-Lewis    0.01245  (  0.2767%)
           Rydberg non-Lewis    0.00355  (  0.0788%)
          -------------------------------
               Total unit  1    4.50000  (100.0000%)
              Charge unit  1    0.00000

 Molecular unit  2  (CH3)
 ------ Lewis --------------------------------------
    2. CR ( 1) C  2             0.99999   -10.15877
    7. BD ( 1) C  2- H  6       0.99513    -0.45887  10(g),12(r),18(r),11(r)
                                                     13(r),19(r),17(r),21(r)
    8. BD ( 1) C  2- H  7       0.99513    -0.45887  10(g),11(r),17(r),12(r)
                                                     13(r),19(r),21(r)
    9. BD ( 1) C  2- H  8       0.99513    -0.45887  10(g),13(r),18(r),11(r)
                                                     12(r),19(r),17(r),21(r)
 ------ non-Lewis ----------------------------------
   10. LV ( 1) C  2             0.49863    -0.07173
   14. BD*( 1) C  2- H  6       0.00415     0.41059
   15. BD*( 1) C  2- H  7       0.00415     0.41059
   16. BD*( 1) C  2- H  8       0.00415     0.41059
   34. RY ( 1) C  2             0.00047     0.70129
   35. RY ( 2) C  2             0.00047     0.70128
   36. RY ( 3) C  2             0.00014     3.12158
   37. RY ( 4) C  2             0.00000     4.57038
   38. RY ( 5) C  2             0.00000     1.90385
   39. RY ( 6) C  2             0.00000    13.03478
   40. RY ( 7) C  2             0.00000     5.75475
   41. RY ( 8) C  2             0.00000     1.00607
   42. RY ( 9) C  2             0.00000     1.07224
   43. RY (10) C  2             0.00000     1.41687
   44. RY (11) C  2             0.00000     3.23706
   45. RY (12) C  2             0.00000     1.43308
   46. RY (13) C  2             0.00000     1.59415
   47. RY (14) C  2             0.00000     1.81729
   48. RY (15) C  2             0.00000     1.68825
   49. RY (16) C  2             0.00000     1.64436
   50. RY (17) C  2             0.00000     2.23855
   69. RY ( 1) H  6             0.00071     0.50430
   70. RY ( 2) H  6             0.00006     2.19722
   71. RY ( 3) H  6             0.00003     1.74665
   72. RY ( 4) H  6             0.00003     1.03742
   73. RY ( 5) H  6             0.00000     2.23398
   74. RY ( 6) H  6             0.00000     1.22321
   75. RY ( 1) H  7             0.00071     0.50430
   76. RY ( 2) H  7             0.00006     2.19721
   77. RY ( 3) H  7             0.00003     1.74665
   78. RY ( 4) H  7             0.00003     1.03742
   79. RY ( 5) H  7             0.00000     2.23398
   80. RY ( 6) H  7             0.00000     1.22321
   81. RY ( 1) H  8             0.00071     0.50430
   82. RY ( 2) H  8             0.00006     2.19722
   83. RY ( 3) H  8             0.00003     1.74665
   84. RY ( 4) H  8             0.00003     1.03742
   85. RY ( 5) H  8             0.00000     2.23398
   86. RY ( 6) H  8             0.00000     1.22321
          -------------------------------
                 Total Lewis    3.98537  ( 88.5638%)
           Valence non-Lewis    0.51108  ( 11.3574%)
           Rydberg non-Lewis    0.00355  (  0.0788%)
          -------------------------------
               Total unit  2    4.50000  (100.0000%)
              Charge unit  2    0.00000


 ***************************************************
 *******         Beta  spin orbitals         *******
 ***************************************************


 NATURAL POPULATIONS:  Natural atomic orbital occupancies

  NAO Atom No lang   Type(AO)    Occupancy      Energy
 -------------------------------------------------------
   1    C  1  s      Cor( 1s)     0.99999     -10.15877
   2    C  1  s      Val( 2s)     0.54883      -0.17629
   3    C  1  s      Ryd( 3s)     0.00065       0.96983
   4    C  1  s      Ryd( 5s)     0.00001      15.76517
   5    C  1  s      Ryd( 4s)     0.00000       7.97922
   6    C  1  px     Val( 2p)     0.60031      -0.08078
   7    C  1  px     Ryd( 3p)     0.00040       0.55470
   8    C  1  px     Ryd( 5p)     0.00000       2.73570
   9    C  1  px     Ryd( 4p)     0.00000       1.02377
  10    C  1  py     Val( 2p)     0.60031      -0.08078
  11    C  1  py     Ryd( 3p)     0.00040       0.55470
[...]
  Beta virt. eigenvalues --    0.72140   0.86223   0.89561   0.89561   1.10043
  Beta virt. eigenvalues --    1.11348   1.11348   1.21932   1.45422   1.48358
  Beta virt. eigenvalues --    1.48358   1.50459   1.56165   1.56165   1.68564
  Beta virt. eigenvalues --    1.68564   1.85060   1.91005   1.91005   2.00133
  Beta virt. eigenvalues --    2.01931   2.14278   2.14278   2.24832   2.24832
  Beta virt. eigenvalues --    2.40373   2.45073   2.49423   2.49423   2.53680
  Beta virt. eigenvalues --    2.53680   2.65977   2.65977   2.72181   2.95896
  Beta virt. eigenvalues --    3.07751   3.07751   3.36184   3.38403   3.38403
  Beta virt. eigenvalues --    3.78755   3.78755   3.82894   4.52450   4.74502
  Beta virt. eigenvalues --    4.74502   7.58662   7.58662   7.69979   9.78356
  Beta virt. eigenvalues --   23.92751  69.77347
          Condensed to atoms (all electrons):
               1          2          3          4          5          6
     1  C    0.007134  -0.057836   0.000072   0.000072   0.000072  -0.008516
     2  C   -0.057836   5.427457  -0.002741  -0.002741  -0.002741   0.387929
     3  H    0.000072  -0.002741   0.000104   0.000011   0.000011   0.000419
     4  H    0.000072  -0.002741   0.000011   0.000104   0.000011  -0.000452
     5  H    0.000072  -0.002741   0.000011   0.000011   0.000104   0.000419
     6  H   -0.008516   0.387929   0.000419  -0.000452   0.000419   0.551858
     7  H   -0.008517   0.387929  -0.000452   0.000419   0.000419  -0.039609
     8  H   -0.008516   0.387929   0.000419   0.000419  -0.000452  -0.039608
               7          8
     1  C   -0.008517  -0.008516
     2  C    0.387929   0.387929
     3  H   -0.000452   0.000419
     4  H    0.000419   0.000419
     5  H    0.000419  -0.000452
     6  H   -0.039609  -0.039608
     7  H    0.551858  -0.039609
     8  H   -0.039609   0.551858
          Atomic-Atomic Spin Densities.
               1          2          3          4          5          6
     1  C   -0.001734   0.009154   0.000108   0.000108   0.000108   0.000900
     2  C    0.009154  -1.127314   0.001659   0.001658   0.001658   0.015437
     3  H    0.000108   0.001659  -0.000074  -0.000001  -0.000001  -0.000590
     4  H    0.000108   0.001658  -0.000001  -0.000074  -0.000001   0.000478
     5  H    0.000108   0.001658  -0.000001  -0.000001  -0.000074  -0.000590
     6  H    0.000900   0.015437  -0.000590   0.000478  -0.000590   0.012053
     7  H    0.000900   0.015437   0.000478  -0.000590  -0.000590  -0.004934
     8  H    0.000900   0.015437  -0.000590  -0.000590   0.000478  -0.004934
               7          8
     1  C    0.000900   0.000900
     2  C    0.015437   0.015437
     3  H    0.000478  -0.000590
     4  H   -0.000590  -0.000590
     5  H   -0.000590   0.000478
     6  H   -0.004934  -0.004934
     7  H    0.012053  -0.004934
     8  H   -0.004934   0.012053
 Mulliken charges and spin densities:
               1          2
     1  C    6.076037   0.010444
     2  C   -0.525184  -1.066873
     3  H    1.002156   0.000989
     4  H    1.002156   0.000989
     5  H    1.002156   0.000989
     6  H    0.147560   0.017821
     7  H    0.147560   0.017821
     8  H    0.147560   0.017821
 Sum of Mulliken charges =   9.00000  -1.00000
 Mulliken charges and spin densities with hydrogens summed into heavy atoms:
               1          2
     1  C    9.082504   0.013411
     2  C   -0.082504  -1.013411
         Mulliken charges and spin densities condensed to fragments:
      1      9.082504      0.013411
      2     -0.082504     -1.013411
 Electronic spatial extent (au):  <R**2>=             55.2191
 Charge=              9.0000 electrons
 Dipole moment (field-independent basis, Debye):
    X=              0.0000    Y=              0.0000    Z=             38.1592  Tot=             38.1592
 Quadrupole moment (field-independent basis, Debye-Ang):
   XX=             -0.2890   YY=             -0.2890   ZZ=             28.9946
   XY=              0.0000   XZ=              0.0000   YZ=              0.0000
 Traceless Quadrupole moment (field-independent basis, Debye-Ang):
   XX=             -9.7612   YY=             -9.7612   ZZ=             19.5224
   XY=              0.0000   XZ=              0.0000   YZ=              0.0000
 Octapole moment (field-independent basis, Debye-Ang**2):
  XXX=              0.0000  YYY=              3.2108  ZZZ=             56.1437  XYY=             -0.0000
  XXY=             -3.2108  XXZ=             14.9525  XZZ=             -0.0000  YZZ=             -0.0000
  YYZ=             14.9525  XYZ=             -0.0000
 Hexadecapole moment (field-independent basis, Debye-Ang**3):
 XXXX=            -10.1943 YYYY=            -10.1943 ZZZZ=            -12.2876 XXXY=              0.0000
 XXXZ=              0.0000 YYYX=              0.0000 YYYZ=              5.2895 ZZZX=             -0.0000
 ZZZY=              0.0000 XXYY=             -3.3981 XXZZ=              0.3364 YYZZ=              0.3364
 XXYZ=             -5.2895 YYXZ=             -0.0000 ZZXY=              0.0000
 N-N= 9.609043298038D+00 E-N=-1.111184132338D+02  KE= 3.961743508673D+01
 --------------------------------------------------------
       Center         ----  Spin Dipole Couplings  ----
                      3XX-RR        3YY-RR        3ZZ-RR
 --------------------------------------------------------
     1   Atom        0.061787      0.061787     -0.123573
     2   Atom        0.507630      0.507630     -1.015260
     3   Atom        0.021759      0.000743     -0.022502
     4   Atom        0.005997      0.016505     -0.022502
     5   Atom        0.005997      0.016505     -0.022502
     6   Atom       -0.028180      0.032153     -0.003973
     7   Atom        0.062320     -0.058346     -0.003973
     8   Atom       -0.028180      0.032153     -0.003973
 --------------------------------------------------------
                        XY            XZ            YZ
 --------------------------------------------------------
     1   Atom        0.000000     -0.000000      0.000000
     2   Atom        0.000000      0.000000     -0.000000
     3   Atom        0.000000      0.000000     -0.030596
     4   Atom       -0.009100      0.026497      0.015298
     5   Atom        0.009100     -0.026497      0.015298
     6   Atom       -0.052250      0.026575      0.015343
     7   Atom        0.000000      0.000000     -0.030687
     8   Atom        0.052250     -0.026575      0.015343
 --------------------------------------------------------


 ---------------------------------------------------------------------------------
              Anisotropic Spin Dipole Couplings in Principal Axis System
 ---------------------------------------------------------------------------------

       Atom             a.u.   MegaHertz   Gauss  10(-4) cm-1        Axes

              Baa    -0.1236   -16.582    -5.917    -5.531  0.0000 -0.0000  1.0000
     1 C(13)  Bbb     0.0618     8.291     2.959     2.766  1.0000 -0.0000 -0.0000
              Bcc     0.0618     8.291     2.959     2.766  0.0000  1.0000  0.0000
 
              Baa    -1.0153  -136.238   -48.613   -45.444 -0.0000  0.0000  1.0000
     2 C(13)  Bbb     0.5076    68.119    24.307    22.722  1.0000 -0.0000  0.0000
              Bcc     0.5076    68.119    24.307    22.722  0.0000  1.0000 -0.0000
 
              Baa    -0.0436   -23.267    -8.302    -7.761 -0.0000  0.5678  0.8231
     3 H(1)   Bbb     0.0218    11.609     4.143     3.872  1.0000  0.0000 -0.0000
              Bcc     0.0218    11.658     4.160     3.889 -0.0000  0.8231 -0.5678
 
              Baa    -0.0436   -23.267    -8.302    -7.761 -0.4918 -0.2839  0.8231
     4 H(1)   Bbb     0.0218    11.609     4.143     3.872 -0.5000  0.8660  0.0000
              Bcc     0.0218    11.658     4.160     3.889  0.7129  0.4116  0.5678
 
              Baa    -0.0436   -23.267    -8.302    -7.761  0.4918 -0.2839  0.8231
     5 H(1)   Bbb     0.0218    11.609     4.143     3.872  0.5000  0.8660  0.0000
              Bcc     0.0218    11.658     4.160     3.889  0.7129 -0.4116 -0.5678
 
              Baa    -0.0722   -38.500   -13.738   -12.842  0.7897  0.4560 -0.4104
     6 H(1)   Bbb     0.0098     5.249     1.873     1.751  0.3554  0.2052  0.9119
              Bcc     0.0623    33.251    11.865    11.091 -0.5000  0.8660 -0.0000
 
              Baa    -0.0722   -38.500   -13.738   -12.842 -0.0000  0.9119  0.4104
     7 H(1)   Bbb     0.0098     5.249     1.873     1.751  0.0000 -0.4104  0.9119
              Bcc     0.0623    33.251    11.865    11.091  1.0000  0.0000  0.0000
 
              Baa    -0.0722   -38.500   -13.738   -12.842  0.7897 -0.4560  0.4104
     8 H(1)   Bbb     0.0098     5.249     1.873     1.751 -0.3554  0.2052  0.9119
              Bcc     0.0623    33.251    11.865    11.091  0.5000  0.8660 -0.0000
 

 ---------------------------------------------------------------------------------

 Running external command "gaunbo7 R"
         input file       "/scr/ericg/b.11.3.3a/Gau-16852.EIn"
         output file      "/scr/ericg/b.11.3.3a/Gau-16852.EOu"
         message file     "/scr/ericg/b.11.3.3a/Gau-16852.EMs"
         fchk file        "/scr/ericg/b.11.3.3a/Gau-16852.EFC"
         mat. el file     "/scr/ericg/b.11.3.3a/Gau-16852.EUF"

 Writing WrtUnf unformatted file "/scr/ericg/b.11.3.3a/Gau-16852.EUF"
 Gaussian matrix elements                                         Version   2 NLab=11 Len12L=8 Len4L=8
 Write SHELL TO ATOM MAP                   from file      0 offset           0 length                  42 to matrix element file.
 Write SHELL TYPES                         from file      0 offset           0 length                  42 to matrix element file.
 Write NUMBER OF PRIMITIVES PER SHELL      from file      0 offset           0 length                  42 to matrix element file.
 Write PRIMITIVE EXPONENTS                 from file      0 offset           0 length                  68 to matrix element file.
 Write CONTRACTION COEFFICIENTS            from file      0 offset           0 length                  68 to matrix element file.
 Write P(S=P) CONTRACTION COEFFICIENTS     from file      0 offset           0 length                  68 to matrix element file.
 Write COORDINATES OF EACH SHELL           from file      0 offset           0 length                 126 to matrix element file.
 Write BONDS PER ATOM                      from file      0 offset           0 length                   8 to matrix element file.
 Write BONDED ATOMS                        from file      0 offset           0 length                  14 to matrix element file.
 Write BOND TYPES                          from file      0 offset           0 length                  14 to matrix element file.
 Write ONIOM CHARGE/MULT                   from file      0 offset           0 length                  32 to matrix element file.
 Write ONIOM ATOM LAYERS                   from file      0 offset           0 length                   8 to matrix element file.
 Write ONIOM ATOM MODIFIERS                from file      0 offset           0 length                   8 to matrix element file.
 Write ONIOM ATOM TYPES                    from file      0 offset           0 length                   8 to matrix element file.
 Write ONIOM LINK ATOMS                    from file      0 offset           0 length                   8 to matrix element file.
 Write ONIOM LINK CHARGES                  from file      0 offset           0 length                   8 to matrix element file.
 Write ONIOM LINK DISTANCES                from file      0 offset           0 length                  32 to matrix element file.
 Write SYMINF INTS                         from file      0 offset           0 length                  26 to matrix element file.
 Write ROTTR TO SO                         from file      0 offset           0 length                  12 to matrix element file.
 Write GAUSSIAN SCALARS                    from file    501 offset           0 to matrix element file.
 Write OPTIMIZATION FLAGS                  from file      0 offset           0 length                   8 to matrix element file.
 Write INTEGER ISO                         from file      0 offset           0 length                   8 to matrix element file.
 Write INTEGER FRAGMENT                    from file      0 offset           0 length                   8 to matrix element file.
 Write INTEGER SPIN                        from file      0 offset           0 length                   8 to matrix element file.
 Write REAL ZEFFECTIVE                     from file      0 offset           0 length                   8 to matrix element file.
 Write REAL GFACTOR                        from file      0 offset           0 length                   8 to matrix element file.
 Write REAL ZNUCLEAR                       from file      0 offset           0 length                   8 to matrix element file.
 Write MULLIKEN CHARGES                    from file      0 offset           0 length                   8 to matrix element file.
 Write NUCLEAR GRADIENT                    from file  10584 offset           0 length                  24 to matrix element file.
 Array NUCLEAR FORCE CONSTANTS              on  file  10585 does not exist.
 Write ELECTRIC DIPOLE MOMENT              from file      0 offset           0 length                   3 to matrix element file.
 Write NON-ADIABATIC COUPLING              from file  10810 offset           0 length                  24 to matrix element file.
 Write ELECTRONS PER FRAGMENT              from file      0 offset           0 length                   8 to matrix element file.
 Write BASIS FUNCTIONS PER FRAGMENT        from file      0 offset           0 length                  96 to matrix element file.
 Write FINITE EM FIELD                     from file  10521 offset           0 length                  35 to matrix element file.
 Write OVERLAP                             from file  10514 offset           0 length                3741 to matrix element file.
 Write CORE HAMILTONIAN ALPHA              from file  10515 offset           0 length                3741 to matrix element file.
 Write CORE HAMILTONIAN BETA               from file  10515 offset        3741 length                3741 to matrix element file.
 Write KINETIC ENERGY                      from file  10516 offset           0 length                3741 to matrix element file.
 Array ORTHOGONAL BASIS                     on  file  10685 does not exist.
 Write DIPOLE INTEGRALS                    from file  10518 offset           0 length               11223 to matrix element file.
 Array DIP VEL INTEGRALS                    on  file  10572 does not exist.
 Array R X DEL INTEGRALS                    on  file  10572 does not exist.
 Write ALPHA ORBITAL ENERGIES              from file      0 offset           0 length                  86 to matrix element file.
 Write BETA ORBITAL ENERGIES               from file      0 offset           0 length                  86 to matrix element file.
 Write ALPHA MO COEFFICIENTS               from file  10524 offset           0 length                7396 to matrix element file.
 Write BETA MO COEFFICIENTS                from file  10526 offset           0 length                7396 to matrix element file.
 Write ALPHA DENSITY MATRIX                from file      0 offset           0 length                3741 to matrix element file.
 Write BETA DENSITY MATRIX                 from file      0 offset           0 length                3741 to matrix element file.
 Write ALPHA FOCK MATRIX                   from file  10536 offset           0 length                3741 to matrix element file.
 Write BETA FOCK MATRIX                    from file  10538 offset           0 length                3741 to matrix element file.
 Write ENERGY-WEIGHTED DENSITY             from file  10571 offset           0 length                3741 to matrix element file.
 Write FRAGMENT DENSITY MATRICES           from file  10774 offset           0 length               14964 to matrix element file.
 Write FRAGMENT OPERATOR MATRICES          from file  10823 offset           0 length              104780 to matrix element file.
 Write ALPHA SCF DENSITY MATRIX            from file      0 offset           0 length                3741 to matrix element file.
 Write BETA SCF DENSITY MATRIX             from file      0 offset           0 length                3741 to matrix element file.
 Write INTEGER PARAMETERS                  from file      0 offset           0 length                   2 to matrix element file.
 No 2e integrals to process.
 Perform NBO analysis...executing G16NBO...


 Natural Energy Decomposition Analysis (Summary):

                                                            Component
                    Energy(wfn)        Energy(wfn)          (kcal/mol)
 ------------------------------------------------------------------------------
 C2H6            -79.8565753(scf)   -79.1189303(loc)      CT = -462.879
                                                          ES = -133.294
                                                         POL =   99.255
                                                          XC =  -33.348
 1. CH3          -39.5057717(def)   -39.8407865(rel) DEF(SE) =  210.225(-26.689)
 2. CH3          -39.5057717(def)   -39.8407865(rel) DEF(SE) =  210.225(-26.689)
                                                              ---------
                                                           E = -109.816


 Electrical (ES+POL+SE) :    -87.416
   Charge Transfer (CT) :   -462.879
       Core (XC+DEF-SE) :    440.479
                        ------------
  Total Interaction (E) :   -109.816


 Dipole moments:

   1. CH3
      Dipole (def):    0.0000(x),   0.0000(y),  -1.8587(z);   1.8587(tot) Debye
      Dipole (rel):    0.0000(x),   0.0000(y),   0.6658(z);   0.6658(tot) Debye
      Dipole (ind):    0.0000(x),   0.0000(y),  -2.5246(z);   2.5246(tot) Debye
   2. CH3
      Dipole (def):    0.0000(x),   0.0000(y),   1.8587(z);   1.8587(tot) Debye
      Dipole (rel):    0.0000(x),   0.0000(y),  -0.6658(z);   0.6658(tot) Debye
      Dipole (ind):    0.0000(x),   0.0000(y),   2.5246(z);   2.5246(tot) Debye

 Opening RunExU unformatted file "/scr/ericg/b.11.3.3a/Gau-16852.EUF"
 Read unf file /scr/ericg/b.11.3.3a/Gau-16852.EUF:
 Label Gaussian matrix elements                                         IVers= 2 NLab= 2 Version=ES64L-G16RevC.01
 Title Ethane...NEDA of C-C bond                                       
 NAtoms=     8 NBasis=    86 NBsUse=    86 ICharg=     0 Multip=     1 NE=    18 Len12L=8 Len4L=8 IOpCl= 1 ICGU=112
 GAUSSIAN SCALARS                    NI= 1 NR= 1 NTot=       1 LenBuf=    2 NRI=1 N=    1000
 Recovered energy= -39.8407865327     dipole=      0.000000000000      0.000000096599     15.013000947187
 Unable to Open any file for archive entry.
 1\1\GINC-NEUTRON\SP\UB3LYP\6-311++G(d,p)\C2H6\ERICG\20-May-2020\0\\# b
 3lyp/6-311++g** neda=2\\Ethane...NEDA of C-C bond\\0,1\C,0,0.,0.,0.765
 35\C,0,0.,0.,-0.76535\H,0,0.,1.018574,1.163687\H,0,-0.882111,-0.509287
 ,1.163687\H,0,0.882111,-0.509287,1.163687\H,0,0.882111,0.509287,-1.163
 687\H,0,0.,-1.018574,-1.163687\H,0,-0.882111,0.509287,-1.163687\\Versi
 on=ES64L-G16RevC.01\HF=-39.8407865\S2=0.752543\S2-1=0.\S2A=3.75858\RMS
 D=2.869e-09\Dipole=0.,0.,15.0130009\Quadrupole=-7.257224,-7.2572237,14
 .5144477,0.,0.,0.\PG=D03D [C3(C1.C1),3SGD(H2)]\\@
 The archive entry for this job was punched.


 IN THE UNIVERSE THE DIFFICULT THINGS ARE DONE AS IF THEY WERE EASY.

                                                          -- LAO-TSU
 Job cpu time:       0 days  0 hours  1 minutes 49.3 seconds.
 Elapsed time:       0 days  0 hours  0 minutes 28.5 seconds.
 File lengths (MBytes):  RWF=     10 Int=      0 D2E=      0 Chk=      3 Scr=      1
 Normal termination of Gaussian 16 at Wed May 20 10:16:08 2020.
