 Entering Gaussian System, Link 0=/opt/g16.c01/g16/g16
 Initial command:
 /opt/g16.c01/g16/l1.exe "/scr/ericg/b.11.3.3b/Gau-17069.inp" -scrdir="/scr/ericg/b.11.3.3b/"
 Entering Link 1 = /opt/g16.c01/g16/l1.exe PID=     17071.
  
 Copyright (c) 1988-2019, Gaussian, Inc.  All Rights Reserved.
  
 This is part of the Gaussian(R) 16 program.  It is based on
 the Gaussian(R) 09 system (copyright 2009, Gaussian, Inc.),
 the Gaussian(R) 03 system (copyright 2003, Gaussian, Inc.),
 the Gaussian(R) 98 system (copyright 1998, Gaussian, Inc.),
 the Gaussian(R) 94 system (copyright 1995, Gaussian, Inc.),
 the Gaussian 92(TM) system (copyright 1992, Gaussian, Inc.),
 the Gaussian 90(TM) system (copyright 1990, Gaussian, Inc.),
 the Gaussian 88(TM) system (copyright 1988, Gaussian, Inc.),
 the Gaussian 86(TM) system (copyright 1986, Carnegie Mellon
 University), and the Gaussian 82(TM) system (copyright 1983,
 Carnegie Mellon University). Gaussian is a federally registered
 trademark of Gaussian, Inc.
  
 This software contains proprietary and confidential information,
 including trade secrets, belonging to Gaussian, Inc.
  
 This software is provided under written license and may be
 used, copied, transmitted, or stored only in accord with that
 written license.
  
 The following legend is applicable only to US Government
 contracts under FAR:
  
                    RESTRICTED RIGHTS LEGEND
  
 Use, reproduction and disclosure by the US Government is
 subject to restrictions as set forth in subparagraphs (a)
 and (c) of the Commercial Computer Software - Restricted
 Rights clause in FAR 52.227-19.
  
 Gaussian, Inc.
 340 Quinnipiac St., Bldg. 40, Wallingford CT 06492
  
  
 ---------------------------------------------------------------
 Warning -- This program may not be used in any manner that
 competes with the business of Gaussian, Inc. or will provide
 assistance to any competitor of Gaussian, Inc.  The licensee
 of this program is prohibited from giving any competitor of
 Gaussian, Inc. access to this program.  By using this program,
 the user acknowledges that Gaussian, Inc. is engaged in the
 business of creating and licensing software in the field of
 computational chemistry and represents and warrants to the
 licensee that it is not a competitor of Gaussian, Inc. and that
 it will not use this program in any manner prohibited above.
 ---------------------------------------------------------------
  

 Cite this work as:
 Gaussian 16, Revision C.01,
 M. J. Frisch, G. W. Trucks, H. B. Schlegel, G. E. Scuseria, 
 M. A. Robb, J. R. Cheeseman, G. Scalmani, V. Barone, 
 G. A. Petersson, H. Nakatsuji, X. Li, M. Caricato, A. V. Marenich, 
 J. Bloino, B. G. Janesko, R. Gomperts, B. Mennucci, H. P. Hratchian, 
 J. V. Ortiz, A. F. Izmaylov, J. L. Sonnenberg, D. Williams-Young, 
 F. Ding, F. Lipparini, F. Egidi, J. Goings, B. Peng, A. Petrone, 
 T. Henderson, D. Ranasinghe, V. G. Zakrzewski, J. Gao, N. Rega, 
 G. Zheng, W. Liang, M. Hada, M. Ehara, K. Toyota, R. Fukuda, 
 J. Hasegawa, M. Ishida, T. Nakajima, Y. Honda, O. Kitao, H. Nakai, 
 T. Vreven, K. Throssell, J. A. Montgomery, Jr., J. E. Peralta, 
 F. Ogliaro, M. J. Bearpark, J. J. Heyd, E. N. Brothers, K. N. Kudin, 
 V. N. Staroverov, T. A. Keith, R. Kobayashi, J. Normand, 
 K. Raghavachari, A. P. Rendell, J. C. Burant, S. S. Iyengar, 
 J. Tomasi, M. Cossi, J. M. Millam, M. Klene, C. Adamo, R. Cammi, 
 J. W. Ochterski, R. L. Martin, K. Morokuma, O. Farkas, 
 J. B. Foresman, and D. J. Fox, Gaussian, Inc., Wallingford CT, 2019.
 
 ******************************************
 Gaussian 16:  ES64L-G16RevC.01  3-Jul-2019
                20-May-2020 
 ******************************************
 %nproc=4
 Will use up to    4 processors via shared memory.
 ------------------------
 #b3lyp/6-311++g** neda=2
 ------------------------
 1/38=1,62=2,160=70,172=1/1;
 2/12=2,17=6,18=5,40=1/2;
 1/38=1,53=2,62=2,63=1,160=70/22;
 3/5=4,6=6,7=1111,11=2,25=1,30=1,74=-5/1,2,3;
 4//1;
 5/5=2,38=5/2;
 6/7=2,8=2,9=2,10=2,28=1,40=111,113=1,114=1,124=2103/1,12(1);
 99/5=1,9=1/99;
 5/5=2,7=1,13=1,38=1,48=100000/2;
 6/7=2,8=2,9=2,10=2,28=1,40=203,113=1,114=1,124=2103/12(-1);
 1/53=2,62=2,63=1,160=70/22;
 3/5=7,6=11,7=1111,11=2,25=1,30=1,74=-5,82=7/1,2,3;
 4/5=19/1;
 5/5=2,38=1,48=100000,185=1/2;
 1/53=2,62=2,63=1,160=70/22(-3);
 2//2;
 6/7=2,8=2,9=2,10=2,19=2,28=1,40=301,113=1,114=1,124=2103/1,12;
 99/5=1,9=1/99;
 -----------------------------------
 Hexachloroethane...b3lyp/6-311++g**
 -----------------------------------
 Symbolic Z-matrix:
 Charge =  0 Multiplicity = 1 in supermolecule
 Charge =  0 Multiplicity = 2 in fragment      1.
 Charge =  0 Multiplicity =-2 in fragment      2.
 C                     0.        0.        0.79571    
 C                     0.        0.       -0.79571    
 Cl                    0.        1.68472   1.40667    
 Cl                   -1.45901  -0.84236   1.40667    
 Cl                    1.45901  -0.84236   1.40667    
 Cl                    1.45901   0.84236  -1.40667    
 Cl                    0.       -1.68472  -1.40667    
 Cl                   -1.45901   0.84236  -1.40667    
 
                          Input orientation:                          
 ---------------------------------------------------------------------
 Center     Atomic      Atomic             Coordinates (Angstroms)
 Number     Number       Type             X           Y           Z
 ---------------------------------------------------------------------
      1          6           0        0.000000    0.000000    0.795709
      2          6           0        0.000000    0.000000   -0.795709
      3         17           0        0.000000    1.684716    1.406671
      4         17           0       -1.459007   -0.842358    1.406671
      5         17           0        1.459007   -0.842358    1.406671
      6         17           0        1.459007    0.842358   -1.406671
      7         17           0        0.000000   -1.684716   -1.406671
      8         17           0       -1.459007    0.842358   -1.406671
 ---------------------------------------------------------------------
                    Distance matrix (angstroms):
                    1          2          3          4          5
     1  C    0.000000
     2  C    1.591418   0.000000
     3  Cl   1.792078   2.772859   0.000000
     4  Cl   1.792078   2.772859   2.918014   0.000000
     5  Cl   1.792078   2.772859   2.918014   2.918014   0.000000
     6  Cl   2.772859   1.792078   3.279201   4.389529   3.279201
     7  Cl   2.772859   1.792078   4.389529   3.279201   3.279201
     8  Cl   2.772859   1.792078   3.279201   3.279201   4.389529
                    6          7          8
     6  Cl   0.000000
     7  Cl   2.918014   0.000000
     8  Cl   2.918014   2.918014   0.000000
 Stoichiometry    C2Cl6
 Framework group  D3D[C3(C.C),3SGD(Cl2)]
 Deg. of freedom     3
 Full point group                 D3D     NOp  12
 Largest Abelian subgroup         C2H     NOp   4
 Largest concise Abelian subgroup C2H     NOp   4
                         Standard orientation:                         
 ---------------------------------------------------------------------
 Center     Atomic      Atomic             Coordinates (Angstroms)
 Number     Number       Type             X           Y           Z
 ---------------------------------------------------------------------
      1          6           0        0.000000    0.000000    0.795709
      2          6           0       -0.000000   -0.000000   -0.795709
      3         17           0        0.000000    1.684716    1.406671
      4         17           0       -1.459007   -0.842358    1.406671
      5         17           0        1.459007   -0.842358    1.406671
      6         17           0        1.459007    0.842358   -1.406671
      7         17           0       -0.000000   -1.684716   -1.406671
      8         17           0       -1.459007    0.842358   -1.406671
 ---------------------------------------------------------------------
 Rotational constants (GHZ):           0.8486550           0.6940964           0.6940964
 Mismatch for IA=      1 IOp=  2 Frag=      1 JA=      2 Frag=      2
 Mismatch for IA=      2 IOp=  2 Frag=      2 JA=      1 Frag=      1
 Mismatch for IA=      3 IOp=  2 Frag=      1 JA=      7 Frag=      2
 Mismatch for IA=      4 IOp=  2 Frag=      1 JA=      8 Frag=      2
 Mismatch for IA=      5 IOp=  2 Frag=      1 JA=      6 Frag=      2
 Mismatch for IA=      6 IOp=  2 Frag=      2 JA=      5 Frag=      1
 Mismatch for IA=      7 IOp=  2 Frag=      2 JA=      3 Frag=      1
 Mismatch for IA=      8 IOp=  2 Frag=      2 JA=      4 Frag=      1
 Symmetry turned off in CkCPSy: fragments do not conform to real system point group.
 Returning to input orientation because symmetry turned off.
 NEDA: doing full-system calculation.
 Standard basis: 6-311++G(d,p) (5D, 7F)
   224 basis functions,   390 primitive gaussians,   232 cartesian basis functions
    57 alpha electrons       57 beta electrons
       nuclear repulsion energy      1008.2825414218 Hartrees.
 NAtoms=    8 NActive=    8 NUniq=    8 SFac= 1.00D+00 NAtFMM=   60 NAOKFM=F Big=F
 Integral buffers will be    131072 words long.
 Raffenetti 2 integral format.
 Two-electron integral symmetry is turned off.
 One-electron integrals computed using PRISM.
 NBasis=   224 RedAO= T EigKep=  1.29D-05  NBF=   224
 NBsUse=   224 1.00D-06 EigRej= -1.00D+00 NBFU=   224
 ExpMin= 4.38D-02 ExpMax= 1.06D+05 ExpMxC= 3.62D+03 IAcc=3 IRadAn=         5 AccDes= 0.00D+00
 Harris functional with IExCor=  402 and IRadAn=       5 diagonalized for initial guess.
 HarFok:  IExCor=  402 AccDes= 0.00D+00 IRadAn=         5 IDoV= 1 UseB2=F ITyADJ=14
 ICtDFT=  3500011 ScaDFX=  1.000000  1.000000  1.000000  1.000000
 FoFCou: FMM=F IPFlag=           0 FMFlag=      100000 FMFlg1=           0
         NFxFlg=           0 DoJE=T BraDBF=F KetDBF=T FulRan=T
         wScrn=  0.000000 ICntrl=       500 IOpCl=  0 I1Cent=   200000004 NGrid=           0
         NMat0=    1 NMatS0=      1 NMatT0=    0 NMatD0=    1 NMtDS0=    0 NMtDT0=    0
 Symmetry not used in FoFCou.
 Initial guess <Sx>= 0.0000 <Sy>= 0.0000 <Sz>= 0.0000 <S**2>=-0.0000 S=-0.0000
 Requested convergence on RMS density matrix=1.00D-08 within 128 cycles.
 Requested convergence on MAX density matrix=1.00D-06.
 Requested convergence on             energy=1.00D-06.
 No special actions if energy rises.
 SCF Done:  E(UB3LYP) =  -2837.53240597     A.U. after   10 cycles
            NFock= 10  Conv=0.91D-08     -V/T= 2.0024
 <Sx>= 0.0000 <Sy>= 0.0000 <Sz>= 0.0000 <S**2>=-0.0000 S=-0.0000
 <L.S>= 0.000000000000E+00
 Annihilation of the first spin contaminant:
 S**2 before annihilation    -0.0000,   after    -0.0000

 **********************************************************************

            Population analysis using the SCF Density.

 **********************************************************************

 Alpha  occ. eigenvalues -- -101.59142-101.59142-101.59142-101.59142-101.59142
 Alpha  occ. eigenvalues -- -101.59142 -10.40031 -10.40017  -9.50617  -9.50615
 Alpha  occ. eigenvalues --   -9.50615  -9.50614  -9.50614  -9.50613  -7.27178
 Alpha  occ. eigenvalues --   -7.27178  -7.27178  -7.27178  -7.27178  -7.27178
 Alpha  occ. eigenvalues --   -7.26027  -7.26027  -7.26027  -7.26027  -7.26027
 Alpha  occ. eigenvalues --   -7.26027  -7.26012  -7.26012  -7.26012  -7.26012
 Alpha  occ. eigenvalues --   -7.26012  -7.26012  -1.00045  -0.93971  -0.87285
 Alpha  occ. eigenvalues --   -0.87285  -0.85416  -0.85416  -0.72116  -0.60984
 Alpha  occ. eigenvalues --   -0.53348  -0.52575  -0.52575  -0.47672  -0.47672
 Alpha  occ. eigenvalues --   -0.38669  -0.38669  -0.37212  -0.36416  -0.36416
 Alpha  occ. eigenvalues --   -0.35952  -0.35952  -0.35442  -0.33603  -0.32541
 Alpha  occ. eigenvalues --   -0.32541  -0.31958
 Alpha virt. eigenvalues --   -0.06486  -0.06309  -0.05615  -0.05615   0.00146
 Alpha virt. eigenvalues --    0.00146   0.00672   0.03072   0.03552   0.03553
 Alpha virt. eigenvalues --    0.05980   0.06396   0.06396   0.07537   0.08312
 Alpha virt. eigenvalues --    0.08313   0.10075   0.10076   0.10276   0.10645
 Alpha virt. eigenvalues --    0.10645   0.10982   0.11200   0.12654   0.14737
 Alpha virt. eigenvalues --    0.14738   0.14861   0.15740   0.16120   0.16120
 Alpha virt. eigenvalues --    0.16472   0.16472   0.17630   0.17631   0.18916
 Alpha virt. eigenvalues --    0.26041   0.26043   0.26162   0.27154   0.38214
 Alpha virt. eigenvalues --    0.38214   0.38953   0.40316   0.40316   0.41623
 Alpha virt. eigenvalues --    0.42016   0.42206   0.42206   0.42843   0.44001
 Alpha virt. eigenvalues --    0.44001   0.45541   0.46961   0.46961   0.47334
 Alpha virt. eigenvalues --    0.47334   0.47944   0.49364   0.49873   0.50589
 Alpha virt. eigenvalues --    0.50590   0.52039   0.52039   0.66538   0.66538
 Alpha virt. eigenvalues --    0.78907   0.78908   0.81596   0.81718   0.81718
 Alpha virt. eigenvalues --    0.82107   0.82682   0.82682   0.83282   0.83824
 Alpha virt. eigenvalues --    0.86256   0.86930   0.86930   0.87559   0.87559
 Alpha virt. eigenvalues --    0.87640   0.88228   0.88228   0.89253   0.91824
 Alpha virt. eigenvalues --    0.93306   0.93306   1.02313   1.03330   1.03330
 Alpha virt. eigenvalues --    1.07219   1.08627   1.08628   1.15426   1.15426
 Alpha virt. eigenvalues --    1.15867   1.20058   1.20169   1.20169   1.30514
 Alpha virt. eigenvalues --    1.33937   1.38173   1.38173   1.55949   1.57794
 Alpha virt. eigenvalues --    1.57794   1.82715   1.82716   1.84870   1.84870
 Alpha virt. eigenvalues --    1.95350   2.21473   2.23688   2.23975   2.25676
 Alpha virt. eigenvalues --    2.25676   2.26039   2.26039   2.29181   2.29181
 Alpha virt. eigenvalues --    2.30296   2.30297   2.34149   2.41527   2.41528
 Alpha virt. eigenvalues --    2.52011   2.55152   2.56584   2.56585   2.88531
 Alpha virt. eigenvalues --    2.93983   2.93983   3.05521   3.05521   3.50100
 Alpha virt. eigenvalues --    9.68134   9.68134   9.68581   9.76032   9.76032
 Alpha virt. eigenvalues --    9.87231  23.26472  23.40192  25.74833  25.83571
 Alpha virt. eigenvalues --   25.84355  25.84529  25.84529  25.87828  25.87828
 Alpha virt. eigenvalues --   25.90756  25.90756  25.94888  25.94889  26.03168
 Alpha virt. eigenvalues --   26.26471  26.26472  26.63579  26.63579  26.69340
 Alpha virt. eigenvalues --   26.84786 215.66337 215.66338 215.67398 215.75778
 Alpha virt. eigenvalues --  215.75778 215.91311
  Beta  occ. eigenvalues -- -101.59142-101.59142-101.59142-101.59142-101.59142
  Beta  occ. eigenvalues -- -101.59142 -10.40031 -10.40017  -9.50617  -9.50615
  Beta  occ. eigenvalues --   -9.50615  -9.50614  -9.50614  -9.50613  -7.27178
  Beta  occ. eigenvalues --   -7.27178  -7.27178  -7.27178  -7.27178  -7.27178
  Beta  occ. eigenvalues --   -7.26027  -7.26027  -7.26027  -7.26027  -7.26027
  Beta  occ. eigenvalues --   -7.26027  -7.26012  -7.26012  -7.26012  -7.26012
  Beta  occ. eigenvalues --   -7.26012  -7.26012  -1.00045  -0.93971  -0.87285
  Beta  occ. eigenvalues --   -0.87285  -0.85416  -0.85416  -0.72116  -0.60984
  Beta  occ. eigenvalues --   -0.53348  -0.52575  -0.52575  -0.47672  -0.47672
  Beta  occ. eigenvalues --   -0.38669  -0.38669  -0.37212  -0.36416  -0.36416
  Beta  occ. eigenvalues --   -0.35952  -0.35952  -0.35442  -0.33603  -0.32541
  Beta  occ. eigenvalues --   -0.32541  -0.31958
  Beta virt. eigenvalues --   -0.06486  -0.06309  -0.05615  -0.05615   0.00146
  Beta virt. eigenvalues --    0.00146   0.00672   0.03072   0.03552   0.03553
  Beta virt. eigenvalues --    0.05980   0.06396   0.06396   0.07537   0.08312
  Beta virt. eigenvalues --    0.08313   0.10075   0.10076   0.10276   0.10645
  Beta virt. eigenvalues --    0.10645   0.10982   0.11200   0.12654   0.14737
  Beta virt. eigenvalues --    0.14738   0.14861   0.15740   0.16120   0.16120
  Beta virt. eigenvalues --    0.16472   0.16472   0.17630   0.17631   0.18916
  Beta virt. eigenvalues --    0.26041   0.26043   0.26162   0.27154   0.38214
  Beta virt. eigenvalues --    0.38214   0.38953   0.40316   0.40316   0.41623
  Beta virt. eigenvalues --    0.42016   0.42206   0.42206   0.42843   0.44001
  Beta virt. eigenvalues --    0.44001   0.45541   0.46961   0.46961   0.47334
  Beta virt. eigenvalues --    0.47334   0.47944   0.49364   0.49873   0.50589
  Beta virt. eigenvalues --    0.50590   0.52039   0.52039   0.66538   0.66538
  Beta virt. eigenvalues --    0.78907   0.78908   0.81596   0.81718   0.81718
  Beta virt. eigenvalues --    0.82107   0.82682   0.82682   0.83282   0.83824
  Beta virt. eigenvalues --    0.86256   0.86930   0.86930   0.87559   0.87559
  Beta virt. eigenvalues --    0.87640   0.88228   0.88228   0.89253   0.91824
  Beta virt. eigenvalues --    0.93306   0.93306   1.02313   1.03330   1.03330
  Beta virt. eigenvalues --    1.07219   1.08627   1.08628   1.15426   1.15426
  Beta virt. eigenvalues --    1.15867   1.20058   1.20169   1.20169   1.30514
  Beta virt. eigenvalues --    1.33937   1.38173   1.38173   1.55949   1.57794
  Beta virt. eigenvalues --    1.57794   1.82715   1.82716   1.84870   1.84870
  Beta virt. eigenvalues --    1.95350   2.21473   2.23688   2.23975   2.25676
  Beta virt. eigenvalues --    2.25676   2.26039   2.26039   2.29181   2.29181
  Beta virt. eigenvalues --    2.30296   2.30297   2.34149   2.41527   2.41528
  Beta virt. eigenvalues --    2.52011   2.55152   2.56584   2.56585   2.88531
  Beta virt. eigenvalues --    2.93983   2.93983   3.05521   3.05521   3.50100
  Beta virt. eigenvalues --    9.68134   9.68134   9.68581   9.76032   9.76032
  Beta virt. eigenvalues --    9.87231  23.26472  23.40192  25.74833  25.83571
  Beta virt. eigenvalues --   25.84355  25.84529  25.84529  25.87828  25.87828
  Beta virt. eigenvalues --   25.90756  25.90756  25.94888  25.94889  26.03168
  Beta virt. eigenvalues --   26.26471  26.26472  26.63579  26.63579  26.69340
  Beta virt. eigenvalues --   26.84786 215.66337 215.66338 215.67398 215.75778
  Beta virt. eigenvalues --  215.75778 215.91311
          Condensed to atoms (all electrons):
               1          2          3          4          5          6
     1  C    8.311702  -0.841391  -0.431652  -0.431644  -0.431644  -0.236867
     2  C   -0.841391   8.311702  -0.236756  -0.236867  -0.236867  -0.431644
     3  Cl  -0.431652  -0.236756  17.089761   0.193508   0.193508   0.162000
     4  Cl  -0.431644  -0.236867   0.193508  17.089774   0.193545   0.046022
     5  Cl  -0.431644  -0.236867   0.193508   0.193545  17.089774   0.162030
     6  Cl  -0.236867  -0.431644   0.162000   0.046022   0.162030  17.089774
     7  Cl  -0.236756  -0.431652   0.046015   0.162000   0.162000   0.193508
     8  Cl  -0.236867  -0.431644   0.162000   0.162030   0.046022   0.193545
               7          8
     1  C   -0.236756  -0.236867
     2  C   -0.431652  -0.431644
     3  Cl   0.046015   0.162000
     4  Cl   0.162000   0.162030
     5  Cl   0.162000   0.046022
     6  Cl   0.193508   0.193545
     7  Cl  17.089761   0.193508
     8  Cl   0.193508  17.089774
          Atomic-Atomic Spin Densities.
               1          2          3          4          5          6
     1  C    0.000000  -0.000000  -0.000000  -0.000000  -0.000000  -0.000000
     2  C   -0.000000   0.000000   0.000000   0.000000   0.000000   0.000000
     3  Cl  -0.000000   0.000000   0.000000   0.000000   0.000000   0.000000
     4  Cl  -0.000000   0.000000   0.000000   0.000000   0.000000  -0.000000
     5  Cl  -0.000000   0.000000   0.000000   0.000000   0.000000   0.000000
     6  Cl  -0.000000   0.000000   0.000000  -0.000000   0.000000  -0.000000
     7  Cl  -0.000000   0.000000   0.000000  -0.000000   0.000000  -0.000000
     8  Cl   0.000000   0.000000  -0.000000  -0.000000  -0.000000  -0.000000
               7          8
     1  C   -0.000000   0.000000
     2  C    0.000000   0.000000
     3  Cl   0.000000  -0.000000
     4  Cl  -0.000000  -0.000000
     5  Cl   0.000000  -0.000000
     6  Cl  -0.000000  -0.000000
     7  Cl  -0.000000  -0.000000
     8  Cl  -0.000000  -0.000000
 Mulliken charges and spin densities:
               1          2
     1  C    0.535118  -0.000000
     2  C    0.535118   0.000000
     3  Cl  -0.178383   0.000000
     4  Cl  -0.178367   0.000000
     5  Cl  -0.178367   0.000000
     6  Cl  -0.178367   0.000000
     7  Cl  -0.178383  -0.000000
     8  Cl  -0.178367  -0.000000
 Sum of Mulliken charges =  -0.00000  -0.00000
 Mulliken charges and spin densities with hydrogens summed into heavy atoms:
               1          2
     1  C    0.535118  -0.000000
     2  C    0.535118   0.000000
     3  Cl  -0.178383   0.000000
     4  Cl  -0.178367   0.000000
     5  Cl  -0.178367   0.000000
     6  Cl  -0.178367   0.000000
     7  Cl  -0.178383  -0.000000
     8  Cl  -0.178367  -0.000000
         Mulliken charges and spin densities condensed to fragments:
      1     -0.000000     -0.000000
      2      0.000000      0.000000
 Electronic spatial extent (au):  <R**2>=           1974.6194
 Charge=             -0.0000 electrons
 Dipole moment (field-independent basis, Debye):
    X=             -0.0000    Y=             -0.0000    Z=              0.0000  Tot=              0.0000
 Quadrupole moment (field-independent basis, Debye-Ang):
   XX=            -85.7430   YY=            -85.7431   ZZ=            -87.9773
   XY=             -0.0000   XZ=             -0.0000   YZ=             -0.0000
 Traceless Quadrupole moment (field-independent basis, Debye-Ang):
   XX=              0.7448   YY=              0.7447   ZZ=             -1.4895
   XY=             -0.0000   XZ=             -0.0000   YZ=             -0.0000
 Octapole moment (field-independent basis, Debye-Ang**2):
  XXX=             -0.0000  YYY=             -0.0000  ZZZ=             -0.0000  XYY=              0.0000
  XXY=              0.0000  XXZ=              0.0000  XZZ=             -0.0000  YZZ=              0.0000
  YYZ=              0.0000  XYZ=              0.0000
 Hexadecapole moment (field-independent basis, Debye-Ang**3):
 XXXX=           -703.1782 YYYY=           -703.1798 ZZZZ=          -1047.5364 XXXY=             -0.0000
 XXXZ=              0.0000 YYYX=             -0.0000 YYYZ=             20.3577 ZZZX=             -0.0000
 ZZZY=             -0.0002 XXYY=           -234.3930 XXZZ=           -280.7305 YYZZ=           -280.7306
 XXYZ=            -20.3582 YYXZ=             -0.0000 ZZXY=             -0.0000
 N-N= 1.008282541422D+03 E-N=-8.755888090850D+03  KE= 2.830814260237D+03
                          Isotropic Fermi Contact Couplings
        Atom                 a.u.       MegaHertz       Gauss      10(-4) cm-1
     1  C(13)             -0.00000      -0.00000      -0.00000      -0.00000
     2  C(13)             -0.00000      -0.00000      -0.00000      -0.00000
     3  Cl(35)            -0.00000      -0.00000      -0.00000      -0.00000
     4  Cl(35)            -0.00000      -0.00000      -0.00000      -0.00000
     5  Cl(35)             0.00000       0.00000       0.00000       0.00000
     6  Cl(35)            -0.00000      -0.00000      -0.00000      -0.00000
     7  Cl(35)            -0.00000      -0.00000      -0.00000      -0.00000
     8  Cl(35)            -0.00000      -0.00000      -0.00000      -0.00000
 --------------------------------------------------------
       Center         ----  Spin Dipole Couplings  ----
                      3XX-RR        3YY-RR        3ZZ-RR
 --------------------------------------------------------
     1   Atom        0.000000      0.000000     -0.000000
     2   Atom        0.000000      0.000000     -0.000000
     3   Atom       -0.000000      0.000000     -0.000000
     4   Atom        0.000000      0.000000     -0.000000
     5   Atom        0.000000     -0.000000     -0.000000
     6   Atom        0.000000     -0.000000     -0.000000
     7   Atom       -0.000000      0.000000      0.000000
     8   Atom        0.000000     -0.000000     -0.000000
 --------------------------------------------------------
                        XY            XZ            YZ
 --------------------------------------------------------
     1   Atom       -0.000000      0.000000     -0.000000
     2   Atom       -0.000000     -0.000000     -0.000000
     3   Atom       -0.000000     -0.000000      0.000000
     4   Atom        0.000000      0.000000      0.000000
     5   Atom       -0.000000     -0.000000      0.000000
     6   Atom        0.000000      0.000000      0.000000
     7   Atom        0.000000      0.000000      0.000000
     8   Atom        0.000000     -0.000000      0.000000
 --------------------------------------------------------


 ---------------------------------------------------------------------------------
              Anisotropic Spin Dipole Couplings in Principal Axis System
 ---------------------------------------------------------------------------------

       Atom             a.u.   MegaHertz   Gauss  10(-4) cm-1        Axes

              Baa    -0.0000    -0.000    -0.000    -0.000 -0.3097  0.2427  0.9193
     1 C(13)  Bbb     0.0000     0.000     0.000     0.000  0.8242  0.5507  0.1322
              Bcc     0.0000     0.000     0.000     0.000 -0.4742  0.7986 -0.3706
 
              Baa    -0.0000    -0.000    -0.000    -0.000  0.2423  0.3933  0.8869
     2 C(13)  Bbb     0.0000     0.000     0.000     0.000  0.9445 -0.3048 -0.1229
              Bcc     0.0000     0.000     0.000     0.000  0.2220  0.8674 -0.4454
 
              Baa    -0.0000    -0.000    -0.000    -0.000  0.9686  0.2479  0.0160
     3 Cl(35) Bbb    -0.0000    -0.000    -0.000    -0.000  0.0203 -0.1434  0.9895
              Bcc     0.0000     0.000     0.000     0.000 -0.2476  0.9581  0.1439
 
              Baa    -0.0000    -0.000    -0.000    -0.000 -0.3327 -0.1054  0.9371
     4 Cl(35) Bbb    -0.0000    -0.000    -0.000    -0.000 -0.4822  0.8730 -0.0730
              Bcc     0.0000     0.000     0.000     0.000  0.8104  0.4762  0.3412
 
              Baa    -0.0000    -0.000    -0.000    -0.000  0.3299 -0.0644  0.9418
     5 Cl(35) Bbb    -0.0000    -0.000    -0.000    -0.000  0.3135  0.9485 -0.0449
              Bcc     0.0000     0.000     0.000     0.000  0.8904 -0.3101 -0.3331
 
              Baa    -0.0000    -0.000    -0.000    -0.000 -0.0708 -0.6274  0.7755
     6 Cl(35) Bbb    -0.0000    -0.000    -0.000    -0.000 -0.1528  0.7751  0.6131
              Bcc     0.0000     0.000     0.000     0.000  0.9857  0.0751  0.1507
 
              Baa    -0.0000    -0.000    -0.000    -0.000  0.9643 -0.2475 -0.0947
     7 Cl(35) Bbb     0.0000     0.000     0.000     0.000  0.2321  0.9613 -0.1483
              Bcc     0.0000     0.000     0.000     0.000  0.1277  0.1210  0.9844
 
              Baa    -0.0000    -0.000    -0.000    -0.000 -0.1178  0.9883 -0.0965
     8 Cl(35) Bbb     0.0000     0.000     0.000     0.000  0.0185  0.0994  0.9949
              Bcc     0.0000     0.000     0.000     0.000  0.9929  0.1154 -0.0300
 

 ---------------------------------------------------------------------------------

 Running external command "gaunbo7 R"
         input file       "/scr/ericg/b.11.3.3b/Gau-17071.EIn"
         output file      "/scr/ericg/b.11.3.3b/Gau-17071.EOu"
         message file     "/scr/ericg/b.11.3.3b/Gau-17071.EMs"
         fchk file        "/scr/ericg/b.11.3.3b/Gau-17071.EFC"
         mat. el file     "/scr/ericg/b.11.3.3b/Gau-17071.EUF"

 Writing WrtUnf unformatted file "/scr/ericg/b.11.3.3b/Gau-17071.EUF"
 Gaussian matrix elements                                         Version   2 NLab=11 Len12L=8 Len4L=8
 Write SHELL TO ATOM MAP                   from file      0 offset           0 length                  90 to matrix element file.
 Write SHELL TYPES                         from file      0 offset           0 length                  90 to matrix element file.
 Write NUMBER OF PRIMITIVES PER SHELL      from file      0 offset           0 length                  90 to matrix element file.
 Write PRIMITIVE EXPONENTS                 from file      0 offset           0 length                 176 to matrix element file.
 Write CONTRACTION COEFFICIENTS            from file      0 offset           0 length                 176 to matrix element file.
 Write P(S=P) CONTRACTION COEFFICIENTS     from file      0 offset           0 length                 176 to matrix element file.
 Write COORDINATES OF EACH SHELL           from file      0 offset           0 length                 270 to matrix element file.
 Write BONDS PER ATOM                      from file      0 offset           0 length                   8 to matrix element file.
 Write BONDED ATOMS                        from file      0 offset           0 length                  14 to matrix element file.
 Write BOND TYPES                          from file      0 offset           0 length                  14 to matrix element file.
 Write ONIOM CHARGE/MULT                   from file      0 offset           0 length                  32 to matrix element file.
 Write ONIOM ATOM LAYERS                   from file      0 offset           0 length                   8 to matrix element file.
 Write ONIOM ATOM MODIFIERS                from file      0 offset           0 length                   8 to matrix element file.
 Write ONIOM ATOM TYPES                    from file      0 offset           0 length                   8 to matrix element file.
 Write ONIOM LINK ATOMS                    from file      0 offset           0 length                   8 to matrix element file.
 Write ONIOM LINK CHARGES                  from file      0 offset           0 length                   8 to matrix element file.
 Write ONIOM LINK DISTANCES                from file      0 offset           0 length                  32 to matrix element file.
 Write SYMINF INTS                         from file      0 offset           0 length                  26 to matrix element file.
 Write ROTTR TO SO                         from file      0 offset           0 length                  12 to matrix element file.
 Write GAUSSIAN SCALARS                    from file    501 offset           0 to matrix element file.
 Write OPTIMIZATION FLAGS                  from file      0 offset           0 length                   8 to matrix element file.
 Write INTEGER ISO                         from file      0 offset           0 length                   8 to matrix element file.
 Write INTEGER FRAGMENT                    from file      0 offset           0 length                   8 to matrix element file.
 Write INTEGER SPIN                        from file      0 offset           0 length                   8 to matrix element file.
 Write REAL ZEFFECTIVE                     from file      0 offset           0 length                   8 to matrix element file.
 Write REAL QUADRUPOLEMOMENT               from file      0 offset           0 length                   8 to matrix element file.
 Write REAL GFACTOR                        from file      0 offset           0 length                   8 to matrix element file.
 Write REAL ZNUCLEAR                       from file      0 offset           0 length                   8 to matrix element file.
 Write MULLIKEN CHARGES                    from file      0 offset           0 length                   8 to matrix element file.
 Write NUCLEAR GRADIENT                    from file  10584 offset           0 length                  24 to matrix element file.
 Array NUCLEAR FORCE CONSTANTS              on  file  10585 does not exist.
 Write ELECTRIC DIPOLE MOMENT              from file      0 offset           0 length                   3 to matrix element file.
 Write NON-ADIABATIC COUPLING              from file  10810 offset           0 length                  24 to matrix element file.
 Write ELECTRONS PER FRAGMENT              from file      0 offset           0 length                   8 to matrix element file.
 Write BASIS FUNCTIONS PER FRAGMENT        from file      0 offset           0 length                  96 to matrix element file.
 Write FINITE EM FIELD                     from file  10521 offset           0 length                  35 to matrix element file.
 Write OVERLAP                             from file  10514 offset           0 length               25200 to matrix element file.
 Write CORE HAMILTONIAN ALPHA              from file  10515 offset           0 length               25200 to matrix element file.
 Write CORE HAMILTONIAN BETA               from file  10515 offset       25200 length               25200 to matrix element file.
 Write KINETIC ENERGY                      from file  10516 offset           0 length               25200 to matrix element file.
 Write ORTHOGONAL BASIS                    from file  10685 offset           0 length               50176 to matrix element file.
 Write DIPOLE INTEGRALS                    from file  10518 offset           0 length               75600 to matrix element file.
 Array DIP VEL INTEGRALS                    on  file  10572 does not exist.
 Array R X DEL INTEGRALS                    on  file  10572 does not exist.
 Write ALPHA ORBITAL ENERGIES              from file      0 offset           0 length                 224 to matrix element file.
 Write BETA ORBITAL ENERGIES               from file      0 offset           0 length                 224 to matrix element file.
 Write ALPHA MO COEFFICIENTS               from file  10524 offset           0 length               50176 to matrix element file.
 Write BETA MO COEFFICIENTS                from file  10526 offset           0 length               50176 to matrix element file.
 Write ALPHA DENSITY MATRIX                from file      0 offset           0 length               25200 to matrix element file.
 Write BETA DENSITY MATRIX                 from file      0 offset           0 length               25200 to matrix element file.
 Write ALPHA FOCK MATRIX                   from file  10536 offset           0 length               25200 to matrix element file.
 Write BETA FOCK MATRIX                    from file  10538 offset           0 length               25200 to matrix element file.
 Write ENERGY-WEIGHTED DENSITY             from file  10571 offset           0 length               25200 to matrix element file.
 Write ALPHA SCF DENSITY MATRIX            from file      0 offset           0 length               25200 to matrix element file.
 Write BETA SCF DENSITY MATRIX             from file      0 offset           0 length               25200 to matrix element file.
 Write INTEGER PARAMETERS                  from file      0 offset           0 length                   2 to matrix element file.
 No 2e integrals to process.
 Perform NBO analysis...executing G16NBO...

 *********************************** NBO 7.0 ***********************************
             N A T U R A L   A T O M I C   O R B I T A L   A N D
          N A T U R A L   B O N D   O R B I T A L   A N A L Y S I S
 ************************ development version (D000000) ************************
  (c) Copyright 1996-2020 Board of Regents of the University of Wisconsin System
      on behalf of the Theoretical Chemistry Institute.  All rights reserved.

          Cite this program [NBO 7.0.9 (21-May-2020)] as:

          NBO 7.0.  E. D. Glendening, J. K. Badenhoop, A. E. Reed,
          J. E. Carpenter, J. A. Bohmann, C. M. Morales, P. Karafiloglou,
          C. R. Landis, and F. Weinhold, Theoretical Chemistry Institute,
          University of Wisconsin, Madison, WI (2018)


 Filename set to /scr/ericg/b.11.3.3b/Gau-17071

 Job title: Hexachloroethane...b3lyp/6-311++g**


 NATURAL POPULATIONS:  Natural atomic orbital occupancies

  NAO Atom No lang   Type(AO)    Occupancy     Spin
 -----------------------------------------------------
   1    C  1  s      Cor( 1s)     1.99999     0.00000
   2    C  1  s      Val( 2s)     1.14802     0.00000
   3    C  1  s      Ryd( 3s)     0.00239     0.00000
   4    C  1  s      Ryd( 4s)     0.00112     0.00000
   5    C  1  s      Ryd( 5s)     0.00003     0.00000
   6    C  1  px     Val( 2p)     0.97993     0.00000
   7    C  1  px     Ryd( 3p)     0.01465     0.00000
   8    C  1  px     Ryd( 4p)     0.00024     0.00000
   9    C  1  px     Ryd( 5p)     0.00004     0.00000
  10    C  1  py     Val( 2p)     0.97993     0.00000
  11    C  1  py     Ryd( 3p)     0.01465     0.00000
  12    C  1  py     Ryd( 4p)     0.00024     0.00000
  13    C  1  py     Ryd( 5p)     0.00004     0.00000
  14    C  1  pz     Val( 2p)     1.05075     0.00000
  15    C  1  pz     Ryd( 3p)     0.01512     0.00000
  16    C  1  pz     Ryd( 4p)     0.00024     0.00000
  17    C  1  pz     Ryd( 5p)     0.00025     0.00000
  18    C  1  dxy    Ryd( 3d)     0.00435     0.00000
  19    C  1  dxz    Ryd( 3d)     0.00270     0.00000
  20    C  1  dyz    Ryd( 3d)     0.00270     0.00000
  21    C  1  dx2y2  Ryd( 3d)     0.00435     0.00000
  22    C  1  dz2    Ryd( 3d)     0.00300     0.00000

  23    C  2  s      Cor( 1s)     1.99999     0.00000
  24    C  2  s      Val( 2s)     1.14802     0.00000
  25    C  2  s      Ryd( 3s)     0.00239     0.00000
  26    C  2  s      Ryd( 4s)     0.00112     0.00000
  27    C  2  s      Ryd( 5s)     0.00003     0.00000
  28    C  2  px     Val( 2p)     0.97993     0.00000
  29    C  2  px     Ryd( 3p)     0.01465     0.00000
  30    C  2  px     Ryd( 4p)     0.00024     0.00000
  31    C  2  px     Ryd( 5p)     0.00004     0.00000
  32    C  2  py     Val( 2p)     0.97993     0.00000
  33    C  2  py     Ryd( 3p)     0.01465     0.00000
  34    C  2  py     Ryd( 4p)     0.00024     0.00000
  35    C  2  py     Ryd( 5p)     0.00004     0.00000
  36    C  2  pz     Val( 2p)     1.05075     0.00000
  37    C  2  pz     Ryd( 3p)     0.01512     0.00000
  38    C  2  pz     Ryd( 4p)     0.00024     0.00000
  39    C  2  pz     Ryd( 5p)     0.00025     0.00000
  40    C  2  dxy    Ryd( 3d)     0.00435     0.00000
  41    C  2  dxz    Ryd( 3d)     0.00270     0.00000
  42    C  2  dyz    Ryd( 3d)     0.00270     0.00000
  43    C  2  dx2y2  Ryd( 3d)     0.00435     0.00000
  44    C  2  dz2    Ryd( 3d)     0.00300     0.00000

  45   Cl  3  s      Cor( 1s)     2.00000     0.00000
  46   Cl  3  s      Cor( 2s)     1.99999     0.00000
  47   Cl  3  s      Val( 3s)     1.85412     0.00000
  48   Cl  3  s      Ryd( 4s)     0.00222     0.00000
  49   Cl  3  s      Ryd( 5s)     0.00029     0.00000
  50   Cl  3  s      Ryd( 6s)     0.00002     0.00000
  51   Cl  3  s      Ryd( 7s)     0.00000     0.00000
  52   Cl  3  px     Cor( 2p)     2.00000     0.00000
  53   Cl  3  px     Val( 3p)     1.94041     0.00000
  54   Cl  3  px     Ryd( 5p)     0.00189     0.00000
  55   Cl  3  px     Ryd( 4p)     0.00014     0.00000
  56   Cl  3  px     Ryd( 6p)     0.00001     0.00000
  57   Cl  3  px     Ryd( 7p)     0.00000     0.00000
  58   Cl  3  py     Cor( 2p)     2.00000     0.00000
  59   Cl  3  py     Val( 3p)     1.25971     0.00000
  60   Cl  3  py     Ryd( 5p)     0.00373     0.00000
  61   Cl  3  py     Ryd( 4p)     0.00019     0.00000
  62   Cl  3  py     Ryd( 6p)     0.00005     0.00000
  63   Cl  3  py     Ryd( 7p)     0.00001     0.00000
  64   Cl  3  pz     Cor( 2p)     2.00000     0.00000
  65   Cl  3  pz     Val( 3p)     1.85114     0.00000
  66   Cl  3  pz     Ryd( 5p)     0.00176     0.00000
  67   Cl  3  pz     Ryd( 4p)     0.00020     0.00000
  68   Cl  3  pz     Ryd( 6p)     0.00002     0.00000
  69   Cl  3  pz     Ryd( 7p)     0.00000     0.00000
  70   Cl  3  dxy    Ryd( 3d)     0.00139     0.00000
  71   Cl  3  dxz    Ryd( 3d)     0.00030     0.00000
  72   Cl  3  dyz    Ryd( 3d)     0.00273     0.00000
  73   Cl  3  dx2y2  Ryd( 3d)     0.00363     0.00000
  74   Cl  3  dz2    Ryd( 3d)     0.00116     0.00000

  75   Cl  4  s      Cor( 1s)     2.00000     0.00000
  76   Cl  4  s      Cor( 2s)     1.99999     0.00000
  77   Cl  4  s      Val( 3s)     1.85412     0.00000
  78   Cl  4  s      Ryd( 4s)     0.00222     0.00000
  79   Cl  4  s      Ryd( 5s)     0.00029     0.00000
  80   Cl  4  s      Ryd( 6s)     0.00002     0.00000
  81   Cl  4  s      Ryd( 7s)     0.00000     0.00000
  82   Cl  4  px     Cor( 2p)     2.00000     0.00000
  83   Cl  4  px     Val( 3p)     1.42989     0.00000
  84   Cl  4  px     Ryd( 5p)     0.00327     0.00000
  85   Cl  4  px     Ryd( 4p)     0.00018     0.00000
  86   Cl  4  px     Ryd( 6p)     0.00004     0.00000
  87   Cl  4  px     Ryd( 7p)     0.00001     0.00000
  88   Cl  4  py     Cor( 2p)     2.00000     0.00000
  89   Cl  4  py     Val( 3p)     1.77024     0.00000
  90   Cl  4  py     Ryd( 5p)     0.00235     0.00000
  91   Cl  4  py     Ryd( 4p)     0.00015     0.00000
  92   Cl  4  py     Ryd( 6p)     0.00002     0.00000
  93   Cl  4  py     Ryd( 7p)     0.00000     0.00000
  94   Cl  4  pz     Cor( 2p)     2.00000     0.00000
  95   Cl  4  pz     Val( 3p)     1.85114     0.00000
  96   Cl  4  pz     Ryd( 5p)     0.00176     0.00000
  97   Cl  4  pz     Ryd( 4p)     0.00020     0.00000
  98   Cl  4  pz     Ryd( 6p)     0.00002     0.00000
  99   Cl  4  pz     Ryd( 7p)     0.00000     0.00000
 100   Cl  4  dxy    Ryd( 3d)     0.00307     0.00000
 101   Cl  4  dxz    Ryd( 3d)     0.00212     0.00000
 102   Cl  4  dyz    Ryd( 3d)     0.00090     0.00000
 103   Cl  4  dx2y2  Ryd( 3d)     0.00195     0.00000
 104   Cl  4  dz2    Ryd( 3d)     0.00116     0.00000

 105   Cl  5  s      Cor( 1s)     2.00000     0.00000
 106   Cl  5  s      Cor( 2s)     1.99999     0.00000
 107   Cl  5  s      Val( 3s)     1.85412     0.00000
 108   Cl  5  s      Ryd( 4s)     0.00222     0.00000
 109   Cl  5  s      Ryd( 5s)     0.00029     0.00000
 110   Cl  5  s      Ryd( 6s)     0.00002     0.00000
 111   Cl  5  s      Ryd( 7s)     0.00000     0.00000
 112   Cl  5  px     Cor( 2p)     2.00000     0.00000
 113   Cl  5  px     Val( 3p)     1.42989     0.00000
 114   Cl  5  px     Ryd( 5p)     0.00327     0.00000
 115   Cl  5  px     Ryd( 4p)     0.00018     0.00000
 116   Cl  5  px     Ryd( 6p)     0.00004     0.00000
 117   Cl  5  px     Ryd( 7p)     0.00001     0.00000
 118   Cl  5  py     Cor( 2p)     2.00000     0.00000
 119   Cl  5  py     Val( 3p)     1.77024     0.00000
 120   Cl  5  py     Ryd( 5p)     0.00235     0.00000
 121   Cl  5  py     Ryd( 4p)     0.00015     0.00000
 122   Cl  5  py     Ryd( 6p)     0.00002     0.00000
 123   Cl  5  py     Ryd( 7p)     0.00000     0.00000
 124   Cl  5  pz     Cor( 2p)     2.00000     0.00000
 125   Cl  5  pz     Val( 3p)     1.85114     0.00000
 126   Cl  5  pz     Ryd( 5p)     0.00176     0.00000
 127   Cl  5  pz     Ryd( 4p)     0.00020     0.00000
 128   Cl  5  pz     Ryd( 6p)     0.00002     0.00000
 129   Cl  5  pz     Ryd( 7p)     0.00000     0.00000
 130   Cl  5  dxy    Ryd( 3d)     0.00307     0.00000
 131   Cl  5  dxz    Ryd( 3d)     0.00212     0.00000
 132   Cl  5  dyz    Ryd( 3d)     0.00090     0.00000
 133   Cl  5  dx2y2  Ryd( 3d)     0.00195     0.00000
 134   Cl  5  dz2    Ryd( 3d)     0.00116     0.00000

 135   Cl  6  s      Cor( 1s)     2.00000     0.00000
 136   Cl  6  s      Cor( 2s)     1.99999     0.00000
 137   Cl  6  s      Val( 3s)     1.85412     0.00000
 138   Cl  6  s      Ryd( 4s)     0.00222     0.00000
 139   Cl  6  s      Ryd( 5s)     0.00029     0.00000
 140   Cl  6  s      Ryd( 6s)     0.00002     0.00000
 141   Cl  6  s      Ryd( 7s)     0.00000     0.00000
 142   Cl  6  px     Cor( 2p)     2.00000     0.00000
 143   Cl  6  px     Val( 3p)     1.42989     0.00000
 144   Cl  6  px     Ryd( 5p)     0.00327     0.00000
 145   Cl  6  px     Ryd( 4p)     0.00018     0.00000
 146   Cl  6  px     Ryd( 6p)     0.00004     0.00000
 147   Cl  6  px     Ryd( 7p)     0.00001     0.00000
 148   Cl  6  py     Cor( 2p)     2.00000     0.00000
 149   Cl  6  py     Val( 3p)     1.77024     0.00000
 150   Cl  6  py     Ryd( 5p)     0.00235     0.00000
 151   Cl  6  py     Ryd( 4p)     0.00015     0.00000
 152   Cl  6  py     Ryd( 6p)     0.00002     0.00000
 153   Cl  6  py     Ryd( 7p)     0.00000     0.00000
 154   Cl  6  pz     Cor( 2p)     2.00000     0.00000
 155   Cl  6  pz     Val( 3p)     1.85114     0.00000
 156   Cl  6  pz     Ryd( 5p)     0.00176     0.00000
 157   Cl  6  pz     Ryd( 4p)     0.00020     0.00000
 158   Cl  6  pz     Ryd( 6p)     0.00002     0.00000
 159   Cl  6  pz     Ryd( 7p)     0.00000     0.00000
 160   Cl  6  dxy    Ryd( 3d)     0.00307     0.00000
 161   Cl  6  dxz    Ryd( 3d)     0.00212     0.00000
 162   Cl  6  dyz    Ryd( 3d)     0.00090     0.00000
 163   Cl  6  dx2y2  Ryd( 3d)     0.00195     0.00000
 164   Cl  6  dz2    Ryd( 3d)     0.00116     0.00000

 165   Cl  7  s      Cor( 1s)     2.00000     0.00000
 166   Cl  7  s      Cor( 2s)     1.99999     0.00000
 167   Cl  7  s      Val( 3s)     1.85412     0.00000
 168   Cl  7  s      Ryd( 4s)     0.00222     0.00000
 169   Cl  7  s      Ryd( 5s)     0.00029     0.00000
 170   Cl  7  s      Ryd( 6s)     0.00002     0.00000
 171   Cl  7  s      Ryd( 7s)     0.00000     0.00000
 172   Cl  7  px     Cor( 2p)     2.00000     0.00000
 173   Cl  7  px     Val( 3p)     1.94041     0.00000
 174   Cl  7  px     Ryd( 5p)     0.00189     0.00000
 175   Cl  7  px     Ryd( 4p)     0.00014     0.00000
 176   Cl  7  px     Ryd( 6p)     0.00001     0.00000
 177   Cl  7  px     Ryd( 7p)     0.00000     0.00000
 178   Cl  7  py     Cor( 2p)     2.00000     0.00000
 179   Cl  7  py     Val( 3p)     1.25971     0.00000
 180   Cl  7  py     Ryd( 5p)     0.00373     0.00000
 181   Cl  7  py     Ryd( 4p)     0.00019     0.00000
 182   Cl  7  py     Ryd( 6p)     0.00005     0.00000
 183   Cl  7  py     Ryd( 7p)     0.00001     0.00000
 184   Cl  7  pz     Cor( 2p)     2.00000     0.00000
 185   Cl  7  pz     Val( 3p)     1.85114     0.00000
 186   Cl  7  pz     Ryd( 5p)     0.00176     0.00000
 187   Cl  7  pz     Ryd( 4p)     0.00020     0.00000
 188   Cl  7  pz     Ryd( 6p)     0.00002     0.00000
 189   Cl  7  pz     Ryd( 7p)     0.00000     0.00000
 190   Cl  7  dxy    Ryd( 3d)     0.00139     0.00000
 191   Cl  7  dxz    Ryd( 3d)     0.00030     0.00000
 192   Cl  7  dyz    Ryd( 3d)     0.00273     0.00000
 193   Cl  7  dx2y2  Ryd( 3d)     0.00363     0.00000
 194   Cl  7  dz2    Ryd( 3d)     0.00116     0.00000

 195   Cl  8  s      Cor( 1s)     2.00000     0.00000
 196   Cl  8  s      Cor( 2s)     1.99999     0.00000
 197   Cl  8  s      Val( 3s)     1.85412     0.00000
 198   Cl  8  s      Ryd( 4s)     0.00222     0.00000
 199   Cl  8  s      Ryd( 5s)     0.00029     0.00000
 200   Cl  8  s      Ryd( 6s)     0.00002     0.00000
 201   Cl  8  s      Ryd( 7s)     0.00000     0.00000
 202   Cl  8  px     Cor( 2p)     2.00000     0.00000
 203   Cl  8  px     Val( 3p)     1.42989     0.00000
 204   Cl  8  px     Ryd( 5p)     0.00327     0.00000
 205   Cl  8  px     Ryd( 4p)     0.00018     0.00000
 206   Cl  8  px     Ryd( 6p)     0.00004     0.00000
 207   Cl  8  px     Ryd( 7p)     0.00001     0.00000
 208   Cl  8  py     Cor( 2p)     2.00000     0.00000
 209   Cl  8  py     Val( 3p)     1.77024     0.00000
 210   Cl  8  py     Ryd( 5p)     0.00235     0.00000
 211   Cl  8  py     Ryd( 4p)     0.00015     0.00000
 212   Cl  8  py     Ryd( 6p)     0.00002     0.00000
 213   Cl  8  py     Ryd( 7p)     0.00000     0.00000
 214   Cl  8  pz     Cor( 2p)     2.00000     0.00000
 215   Cl  8  pz     Val( 3p)     1.85114     0.00000
 216   Cl  8  pz     Ryd( 5p)     0.00176     0.00000
 217   Cl  8  pz     Ryd( 4p)     0.00020     0.00000
 218   Cl  8  pz     Ryd( 6p)     0.00002     0.00000
 219   Cl  8  pz     Ryd( 7p)     0.00000     0.00000
 220   Cl  8  dxy    Ryd( 3d)     0.00307     0.00000
 221   Cl  8  dxz    Ryd( 3d)     0.00212     0.00000
 222   Cl  8  dyz    Ryd( 3d)     0.00090     0.00000
 223   Cl  8  dx2y2  Ryd( 3d)     0.00195     0.00000
 224   Cl  8  dz2    Ryd( 3d)     0.00116     0.00000


 Summary of Natural Population Analysis:

                                     Natural Population                 Natural
             Natural    ---------------------------------------------    Spin
  Atom No    Charge        Core      Valence    Rydberg      Total      Density
 -------------------------------------------------------------------------------
    C  1   -0.22470      1.99999     4.15863    0.06607     6.22470     0.00000
    C  2   -0.22470      1.99999     4.15863    0.06607     6.22470     0.00000
   Cl  3    0.07490      9.99999     6.90539    0.01973    16.92510     0.00000
   Cl  4    0.07490      9.99999     6.90539    0.01973    16.92510     0.00000
   Cl  5    0.07490      9.99999     6.90539    0.01973    16.92510     0.00000
   Cl  6    0.07490      9.99999     6.90539    0.01973    16.92510     0.00000
   Cl  7    0.07490      9.99999     6.90539    0.01973    16.92510     0.00000
   Cl  8    0.07490      9.99999     6.90539    0.01973    16.92510     0.00000
 ===============================================================================
 * Total *  0.00000     63.99990    49.74958    0.25052   114.00000     0.00000

                                 Natural Population
 ---------------------------------------------------------
   Core                      63.99990 ( 99.9998% of   64)
   Valence                   49.74958 ( 99.4992% of   50)
   Natural Minimal Basis    113.74948 ( 99.7802% of  114)
   Natural Rydberg Basis      0.25052 (  0.2198% of  114)
 ---------------------------------------------------------

    Atom No         Natural Electron Configuration
 ----------------------------------------------------------------------------
      C  1      [core]2s( 1.15)2p( 3.01)3p( 0.04)3d( 0.02)
      C  2      [core]2s( 1.15)2p( 3.01)3p( 0.04)3d( 0.02)
     Cl  3      [core]3s( 1.85)3p( 5.05)3d( 0.01)5p( 0.01)
     Cl  4      [core]3s( 1.85)3p( 5.05)3d( 0.01)5p( 0.01)
     Cl  5      [core]3s( 1.85)3p( 5.05)3d( 0.01)5p( 0.01)
     Cl  6      [core]3s( 1.85)3p( 5.05)3d( 0.01)5p( 0.01)
     Cl  7      [core]3s( 1.85)3p( 5.05)3d( 0.01)5p( 0.01)
     Cl  8      [core]3s( 1.85)3p( 5.05)3d( 0.01)5p( 0.01)


 ***************************************************
 *******         Alpha spin orbitals         *******
 ***************************************************


 NATURAL POPULATIONS:  Natural atomic orbital occupancies

  NAO Atom No lang   Type(AO)    Occupancy      Energy
 -------------------------------------------------------
   1    C  1  s      Cor( 1s)     1.00000     -10.40017
   2    C  1  s      Val( 2s)     0.57401      -0.45383
   3    C  1  s      Ryd( 3s)     0.00119       1.78441
   4    C  1  s      Ryd( 4s)     0.00056       5.37610
   5    C  1  s      Ryd( 5s)     0.00001      15.04428
   6    C  1  px     Val( 2p)     0.48996      -0.27800
   7    C  1  px     Ryd( 3p)     0.00732       0.53488
   8    C  1  px     Ryd( 4p)     0.00012       2.72608
   9    C  1  px     Ryd( 5p)     0.00002       3.00683
  10    C  1  py     Val( 2p)     0.48996      -0.27800
  11    C  1  py     Ryd( 3p)     0.00732       0.53489
  12    C  1  py     Ryd( 4p)     0.00012       2.72614
  13    C  1  py     Ryd( 5p)     0.00002       3.00683
  14    C  1  pz     Val( 2p)     0.52537      -0.25876
  15    C  1  pz     Ryd( 3p)     0.00756       0.45529
  16    C  1  pz     Ryd( 4p)     0.00012       1.33652
  17    C  1  pz     Ryd( 5p)     0.00012       3.07946
  18    C  1  dxy    Ryd( 3d)     0.00217       1.45449
  19    C  1  dxz    Ryd( 3d)     0.00135       1.43024
  20    C  1  dyz    Ryd( 3d)     0.00135       1.43024
  21    C  1  dx2y2  Ryd( 3d)     0.00217       1.45450
  22    C  1  dz2    Ryd( 3d)     0.00150       1.67013

  23    C  2  s      Cor( 1s)     1.00000     -10.40017
  24    C  2  s      Val( 2s)     0.57401      -0.45383
  25    C  2  s      Ryd( 3s)     0.00119       1.78441
  26    C  2  s      Ryd( 4s)     0.00056       5.37610
  27    C  2  s      Ryd( 5s)     0.00001      15.04428
  28    C  2  px     Val( 2p)     0.48996      -0.27800
  29    C  2  px     Ryd( 3p)     0.00732       0.53488
  30    C  2  px     Ryd( 4p)     0.00012       2.72608
  31    C  2  px     Ryd( 5p)     0.00002       3.00683
  32    C  2  py     Val( 2p)     0.48996      -0.27800
  33    C  2  py     Ryd( 3p)     0.00732       0.53489
  34    C  2  py     Ryd( 4p)     0.00012       2.72614
  35    C  2  py     Ryd( 5p)     0.00002       3.00683
  36    C  2  pz     Val( 2p)     0.52537      -0.25876
  37    C  2  pz     Ryd( 3p)     0.00756       0.45529
  38    C  2  pz     Ryd( 4p)     0.00012       1.33652
  39    C  2  pz     Ryd( 5p)     0.00012       3.07946
  40    C  2  dxy    Ryd( 3d)     0.00217       1.45449
  41    C  2  dxz    Ryd( 3d)     0.00135       1.43024
  42    C  2  dyz    Ryd( 3d)     0.00135       1.43024
  43    C  2  dx2y2  Ryd( 3d)     0.00217       1.45450
  44    C  2  dz2    Ryd( 3d)     0.00150       1.67013

  45   Cl  3  s      Cor( 1s)     1.00000    -101.36779
  46   Cl  3  s      Cor( 2s)     0.99999      -9.72959
  47   Cl  3  s      Val( 3s)     0.92706      -0.75725
  48   Cl  3  s      Ryd( 4s)     0.00111       1.20201
  49   Cl  3  s      Ryd( 5s)     0.00014       3.52581
  50   Cl  3  s      Ryd( 6s)     0.00001      17.17645
  51   Cl  3  s      Ryd( 7s)     0.00000     204.71955
  52   Cl  3  px     Cor( 2p)     1.00000      -7.26012
  53   Cl  3  px     Val( 3p)     0.97021      -0.34920
  54   Cl  3  px     Ryd( 5p)     0.00095       0.45518
  55   Cl  3  px     Ryd( 4p)     0.00007       0.29817
  56   Cl  3  px     Ryd( 6p)     0.00000       3.51698
  57   Cl  3  px     Ryd( 7p)     0.00000      24.28577
  58   Cl  3  py     Cor( 2p)     1.00000      -7.27039
  59   Cl  3  py     Val( 3p)     0.62986      -0.30758
  60   Cl  3  py     Ryd( 5p)     0.00187       0.44512
  61   Cl  3  py     Ryd( 4p)     0.00009       0.60075
  62   Cl  3  py     Ryd( 6p)     0.00003       4.19502
  63   Cl  3  py     Ryd( 7p)     0.00000      23.44226
  64   Cl  3  pz     Cor( 2p)     1.00000      -7.26173
  65   Cl  3  pz     Val( 3p)     0.92557      -0.34471
  66   Cl  3  pz     Ryd( 5p)     0.00088       0.46801
  67   Cl  3  pz     Ryd( 4p)     0.00010       0.34997
  68   Cl  3  pz     Ryd( 6p)     0.00001       3.63810
  69   Cl  3  pz     Ryd( 7p)     0.00000      24.14912
  70   Cl  3  dxy    Ryd( 3d)     0.00069       0.95513
  71   Cl  3  dxz    Ryd( 3d)     0.00015       0.85756
  72   Cl  3  dyz    Ryd( 3d)     0.00136       1.00921
  73   Cl  3  dx2y2  Ryd( 3d)     0.00182       1.03570
  74   Cl  3  dz2    Ryd( 3d)     0.00058       0.91959

  75   Cl  4  s      Cor( 1s)     1.00000    -101.36779
  76   Cl  4  s      Cor( 2s)     0.99999      -9.72959
  77   Cl  4  s      Val( 3s)     0.92706      -0.75724
  78   Cl  4  s      Ryd( 4s)     0.00111       1.20201
  79   Cl  4  s      Ryd( 5s)     0.00014       3.52572
  80   Cl  4  s      Ryd( 6s)     0.00001      17.17664
  81   Cl  4  s      Ryd( 7s)     0.00000     204.71961
  82   Cl  4  px     Cor( 2p)     1.00000      -7.26782
  83   Cl  4  px     Val( 3p)     0.71494      -0.31798
  84   Cl  4  px     Ryd( 5p)     0.00164       0.44764
  85   Cl  4  px     Ryd( 4p)     0.00009       0.52509
  86   Cl  4  px     Ryd( 6p)     0.00002       4.02530
  87   Cl  4  px     Ryd( 7p)     0.00000      23.65336
  88   Cl  4  py     Cor( 2p)     1.00000      -7.26268
  89   Cl  4  py     Val( 3p)     0.88512      -0.33879
  90   Cl  4  py     Ryd( 5p)     0.00118       0.45267
  91   Cl  4  py     Ryd( 4p)     0.00008       0.37380
  92   Cl  4  py     Ryd( 6p)     0.00001       3.68629
  93   Cl  4  py     Ryd( 7p)     0.00000      24.07510
  94   Cl  4  pz     Cor( 2p)     1.00000      -7.26173
  95   Cl  4  pz     Val( 3p)     0.92557      -0.34470
  96   Cl  4  pz     Ryd( 5p)     0.00088       0.46802
  97   Cl  4  pz     Ryd( 4p)     0.00010       0.34996
  98   Cl  4  pz     Ryd( 6p)     0.00001       3.63789
  99   Cl  4  pz     Ryd( 7p)     0.00000      24.14933
 100   Cl  4  dxy    Ryd( 3d)     0.00154       1.01556
 101   Cl  4  dxz    Ryd( 3d)     0.00106       0.97129
 102   Cl  4  dyz    Ryd( 3d)     0.00045       0.89547
 103   Cl  4  dx2y2  Ryd( 3d)     0.00097       0.97527
 104   Cl  4  dz2    Ryd( 3d)     0.00058       0.91960

 105   Cl  5  s      Cor( 1s)     1.00000    -101.36779
 106   Cl  5  s      Cor( 2s)     0.99999      -9.72959
 107   Cl  5  s      Val( 3s)     0.92706      -0.75724
 108   Cl  5  s      Ryd( 4s)     0.00111       1.20201
 109   Cl  5  s      Ryd( 5s)     0.00014       3.52572
 110   Cl  5  s      Ryd( 6s)     0.00001      17.17665
 111   Cl  5  s      Ryd( 7s)     0.00000     204.71961
 112   Cl  5  px     Cor( 2p)     1.00000      -7.26782
 113   Cl  5  px     Val( 3p)     0.71494      -0.31798
 114   Cl  5  px     Ryd( 5p)     0.00164       0.44764
 115   Cl  5  px     Ryd( 4p)     0.00009       0.52509
 116   Cl  5  px     Ryd( 6p)     0.00002       4.02530
 117   Cl  5  px     Ryd( 7p)     0.00000      23.65336
 118   Cl  5  py     Cor( 2p)     1.00000      -7.26268
 119   Cl  5  py     Val( 3p)     0.88512      -0.33879
 120   Cl  5  py     Ryd( 5p)     0.00118       0.45267
 121   Cl  5  py     Ryd( 4p)     0.00008       0.37380
 122   Cl  5  py     Ryd( 6p)     0.00001       3.68629
 123   Cl  5  py     Ryd( 7p)     0.00000      24.07510
 124   Cl  5  pz     Cor( 2p)     1.00000      -7.26173
 125   Cl  5  pz     Val( 3p)     0.92557      -0.34470
 126   Cl  5  pz     Ryd( 5p)     0.00088       0.46802
 127   Cl  5  pz     Ryd( 4p)     0.00010       0.34996
 128   Cl  5  pz     Ryd( 6p)     0.00001       3.63789
 129   Cl  5  pz     Ryd( 7p)     0.00000      24.14933
 130   Cl  5  dxy    Ryd( 3d)     0.00154       1.01556
 131   Cl  5  dxz    Ryd( 3d)     0.00106       0.97129
 132   Cl  5  dyz    Ryd( 3d)     0.00045       0.89547
 133   Cl  5  dx2y2  Ryd( 3d)     0.00097       0.97527
 134   Cl  5  dz2    Ryd( 3d)     0.00058       0.91960

 135   Cl  6  s      Cor( 1s)     1.00000    -101.36779
 136   Cl  6  s      Cor( 2s)     0.99999      -9.72959
 137   Cl  6  s      Val( 3s)     0.92706      -0.75724
 138   Cl  6  s      Ryd( 4s)     0.00111       1.20201
 139   Cl  6  s      Ryd( 5s)     0.00014       3.52572
 140   Cl  6  s      Ryd( 6s)     0.00001      17.17665
 141   Cl  6  s      Ryd( 7s)     0.00000     204.71961
 142   Cl  6  px     Cor( 2p)     1.00000      -7.26782
 143   Cl  6  px     Val( 3p)     0.71494      -0.31798
 144   Cl  6  px     Ryd( 5p)     0.00164       0.44764
 145   Cl  6  px     Ryd( 4p)     0.00009       0.52509
 146   Cl  6  px     Ryd( 6p)     0.00002       4.02530
 147   Cl  6  px     Ryd( 7p)     0.00000      23.65336
 148   Cl  6  py     Cor( 2p)     1.00000      -7.26268
 149   Cl  6  py     Val( 3p)     0.88512      -0.33879
 150   Cl  6  py     Ryd( 5p)     0.00118       0.45267
 151   Cl  6  py     Ryd( 4p)     0.00008       0.37380
 152   Cl  6  py     Ryd( 6p)     0.00001       3.68629
 153   Cl  6  py     Ryd( 7p)     0.00000      24.07510
 154   Cl  6  pz     Cor( 2p)     1.00000      -7.26173
 155   Cl  6  pz     Val( 3p)     0.92557      -0.34470
 156   Cl  6  pz     Ryd( 5p)     0.00088       0.46802
 157   Cl  6  pz     Ryd( 4p)     0.00010       0.34996
 158   Cl  6  pz     Ryd( 6p)     0.00001       3.63789
 159   Cl  6  pz     Ryd( 7p)     0.00000      24.14933
 160   Cl  6  dxy    Ryd( 3d)     0.00154       1.01556
 161   Cl  6  dxz    Ryd( 3d)     0.00106       0.97129
 162   Cl  6  dyz    Ryd( 3d)     0.00045       0.89547
 163   Cl  6  dx2y2  Ryd( 3d)     0.00097       0.97527
 164   Cl  6  dz2    Ryd( 3d)     0.00058       0.91960

 165   Cl  7  s      Cor( 1s)     1.00000    -101.36779
 166   Cl  7  s      Cor( 2s)     0.99999      -9.72959
 167   Cl  7  s      Val( 3s)     0.92706      -0.75725
 168   Cl  7  s      Ryd( 4s)     0.00111       1.20201
 169   Cl  7  s      Ryd( 5s)     0.00014       3.52581
 170   Cl  7  s      Ryd( 6s)     0.00001      17.17645
 171   Cl  7  s      Ryd( 7s)     0.00000     204.71955
 172   Cl  7  px     Cor( 2p)     1.00000      -7.26012
 173   Cl  7  px     Val( 3p)     0.97021      -0.34920
 174   Cl  7  px     Ryd( 5p)     0.00095       0.45518
 175   Cl  7  px     Ryd( 4p)     0.00007       0.29817
 176   Cl  7  px     Ryd( 6p)     0.00000       3.51698
 177   Cl  7  px     Ryd( 7p)     0.00000      24.28577
 178   Cl  7  py     Cor( 2p)     1.00000      -7.27039
 179   Cl  7  py     Val( 3p)     0.62986      -0.30758
 180   Cl  7  py     Ryd( 5p)     0.00187       0.44512
 181   Cl  7  py     Ryd( 4p)     0.00009       0.60075
 182   Cl  7  py     Ryd( 6p)     0.00003       4.19502
 183   Cl  7  py     Ryd( 7p)     0.00000      23.44226
 184   Cl  7  pz     Cor( 2p)     1.00000      -7.26173
 185   Cl  7  pz     Val( 3p)     0.92557      -0.34471
 186   Cl  7  pz     Ryd( 5p)     0.00088       0.46801
 187   Cl  7  pz     Ryd( 4p)     0.00010       0.34997
 188   Cl  7  pz     Ryd( 6p)     0.00001       3.63810
 189   Cl  7  pz     Ryd( 7p)     0.00000      24.14912
 190   Cl  7  dxy    Ryd( 3d)     0.00069       0.95513
 191   Cl  7  dxz    Ryd( 3d)     0.00015       0.85756
 192   Cl  7  dyz    Ryd( 3d)     0.00136       1.00921
 193   Cl  7  dx2y2  Ryd( 3d)     0.00182       1.03570
 194   Cl  7  dz2    Ryd( 3d)     0.00058       0.91959

 195   Cl  8  s      Cor( 1s)     1.00000    -101.36779
 196   Cl  8  s      Cor( 2s)     0.99999      -9.72959
 197   Cl  8  s      Val( 3s)     0.92706      -0.75724
 198   Cl  8  s      Ryd( 4s)     0.00111       1.20201
 199   Cl  8  s      Ryd( 5s)     0.00014       3.52572
 200   Cl  8  s      Ryd( 6s)     0.00001      17.17665
 201   Cl  8  s      Ryd( 7s)     0.00000     204.71961
 202   Cl  8  px     Cor( 2p)     1.00000      -7.26782
 203   Cl  8  px     Val( 3p)     0.71494      -0.31798
 204   Cl  8  px     Ryd( 5p)     0.00164       0.44764
 205   Cl  8  px     Ryd( 4p)     0.00009       0.52509
 206   Cl  8  px     Ryd( 6p)     0.00002       4.02530
 207   Cl  8  px     Ryd( 7p)     0.00000      23.65336
 208   Cl  8  py     Cor( 2p)     1.00000      -7.26268
 209   Cl  8  py     Val( 3p)     0.88512      -0.33879
 210   Cl  8  py     Ryd( 5p)     0.00118       0.45267
 211   Cl  8  py     Ryd( 4p)     0.00008       0.37380
 212   Cl  8  py     Ryd( 6p)     0.00001       3.68629
 213   Cl  8  py     Ryd( 7p)     0.00000      24.07510
 214   Cl  8  pz     Cor( 2p)     1.00000      -7.26173
 215   Cl  8  pz     Val( 3p)     0.92557      -0.34470
 216   Cl  8  pz     Ryd( 5p)     0.00088       0.46802
 217   Cl  8  pz     Ryd( 4p)     0.00010       0.34996
 218   Cl  8  pz     Ryd( 6p)     0.00001       3.63789
 219   Cl  8  pz     Ryd( 7p)     0.00000      24.14933
 220   Cl  8  dxy    Ryd( 3d)     0.00154       1.01556
 221   Cl  8  dxz    Ryd( 3d)     0.00106       0.97129
 222   Cl  8  dyz    Ryd( 3d)     0.00045       0.89547
 223   Cl  8  dx2y2  Ryd( 3d)     0.00097       0.97527
 224   Cl  8  dz2    Ryd( 3d)     0.00058       0.91960


 Summary of Natural Population Analysis:

                                     Natural Population
             Natural    ---------------------------------------------
  Atom No    Charge        Core      Valence    Rydberg      Total
 --------------------------------------------------------------------
    C  1   -0.11235      1.00000     2.07932    0.03304     3.11235
    C  2   -0.11235      1.00000     2.07932    0.03304     3.11235
   Cl  3    0.03745      4.99999     3.45269    0.00986     8.46255
   Cl  4    0.03745      4.99999     3.45269    0.00986     8.46255
   Cl  5    0.03745      4.99999     3.45269    0.00986     8.46255
   Cl  6    0.03745      4.99999     3.45269    0.00986     8.46255
   Cl  7    0.03745      4.99999     3.45269    0.00986     8.46255
   Cl  8    0.03745      4.99999     3.45269    0.00986     8.46255
 ====================================================================
 * Total *  0.00000     31.99995    24.87479    0.12526    57.00000

                                 Natural Population
 ---------------------------------------------------------
   Core                      31.99995 ( 99.9998% of   32)
   Valence                   24.87479 ( 99.4992% of   25)
   Natural Minimal Basis     56.87474 ( 99.7802% of   57)
   Natural Rydberg Basis      0.12526 (  0.2198% of   57)
 ---------------------------------------------------------

    Atom No         Natural Electron Configuration
 ----------------------------------------------------------------------------
      C  1      [core]2s( 0.57)2p( 1.51)3p( 0.02)3d( 0.01)
      C  2      [core]2s( 0.57)2p( 1.51)3p( 0.02)3d( 0.01)
     Cl  3      [core]3s( 0.93)3p( 2.53)
     Cl  4      [core]3s( 0.93)3p( 2.53)
     Cl  5      [core]3s( 0.93)3p( 2.53)
     Cl  6      [core]3s( 0.93)3p( 2.53)
     Cl  7      [core]3s( 0.93)3p( 2.53)
     Cl  8      [core]3s( 0.93)3p( 2.53)


 NATURAL BOND ORBITAL ANALYSIS, alpha spin orbitals:

 User-requested molecular units:
   1. <C1,Cl3,Cl4,Cl5>
   2. <C2,Cl6,Cl7,Cl8>

                            Occupancies       Lewis Structure    Low   High
         Max    Occ     -------------------  -----------------   occ   occ
  Cycle  Ctr   Thresh    Lewis   non-Lewis     CR  BD  nC  LP    (L)   (NL)
 ============================================================================
    1     2     0.95    56.09418   0.90582     32   6   0  19     1      1
 ----------------------------------------------------------------------------

 Strongly delocalized structure accepted

 -------------------------------------------------------
   Core                     31.99995 (100.000% of  32)
   Valence Lewis            24.09424 ( 96.377% of  25)
  ==================      =============================
   Total Lewis              56.09418 ( 98.411% of  57)
  -----------------------------------------------------
   Valence non-Lewis         0.81971 (  1.438% of  57)
   Rydberg non-Lewis         0.08610 (  0.151% of  57)
  ==================      =============================
   Total non-Lewis           0.90582 (  1.589% of  57)
 -------------------------------------------------------


     (Occupancy)   Bond orbital / Coefficients / Hybrids
 ------------------ Lewis ------------------------------------------------------
   1. (1.00000) CR ( 1) C  1            s(100.00%)
                                         1.0000  0.0000  0.0000  0.0000  0.0000
                                         0.0000  0.0000  0.0000  0.0000  0.0000
                                         0.0000  0.0000  0.0000  0.0000  0.0000
                                         0.0000  0.0000  0.0000  0.0000  0.0000
                                         0.0000  0.0000
   2. (1.00000) CR ( 1) C  2            s(100.00%)
                                         1.0000  0.0000  0.0000  0.0000  0.0000
                                         0.0000  0.0000  0.0000  0.0000  0.0000
                                         0.0000  0.0000  0.0000  0.0000  0.0000
                                         0.0000  0.0000  0.0000  0.0000  0.0000
                                         0.0000  0.0000
   3. (1.00000) CR ( 1)Cl  3            s(100.00%)
                                         1.0000  0.0000  0.0000  0.0000  0.0000
                                         0.0000  0.0000  0.0000  0.0000  0.0000
                                         0.0000  0.0000  0.0000  0.0000  0.0000
                                         0.0000  0.0000  0.0000  0.0000  0.0000
                                         0.0000  0.0000  0.0000  0.0000  0.0000
                                         0.0000  0.0000  0.0000  0.0000  0.0000
   4. (0.99999) CR ( 2)Cl  3            s(100.00%)
                                         0.0000  1.0000  0.0000  0.0000  0.0000
                                         0.0000  0.0000  0.0000  0.0000  0.0000
                                         0.0000  0.0000  0.0000  0.0000  0.0000
                                         0.0000  0.0000  0.0000  0.0000  0.0000
                                         0.0000  0.0000  0.0000  0.0000  0.0000
                                         0.0000  0.0000  0.0000  0.0000  0.0000
   5. (1.00000) CR ( 3)Cl  3            s(  0.00%)p 1.00(100.00%)
                                         0.0000  0.0000  0.0000  0.0000  0.0000
                                         0.0000  0.0000  1.0000  0.0000  0.0000
                                         0.0000  0.0000  0.0000  0.0000  0.0000
                                         0.0000  0.0000  0.0000  0.0000  0.0000
                                         0.0000  0.0000  0.0000  0.0000  0.0000
                                         0.0000  0.0000  0.0000  0.0000  0.0000
   6. (1.00000) CR ( 4)Cl  3            s(  0.00%)p 1.00(100.00%)
                                         0.0000  0.0000  0.0000  0.0000  0.0000
                                         0.0000  0.0000  0.0000  0.0000  0.0000
                                         0.0000  0.0000  0.0000  1.0000  0.0000
                                         0.0000  0.0000  0.0000  0.0000  0.0000
                                         0.0000  0.0000  0.0000  0.0000  0.0000
                                         0.0000  0.0000  0.0000  0.0000  0.0000
   7. (1.00000) CR ( 5)Cl  3            s(  0.00%)p 1.00(100.00%)
                                         0.0000  0.0000  0.0000  0.0000  0.0000
                                         0.0000  0.0000  0.0000  0.0000  0.0000
                                         0.0000  0.0000  0.0000  0.0000  0.0000
                                         0.0000  0.0000  0.0000  0.0000  1.0000
                                         0.0000  0.0000  0.0000  0.0000  0.0000
                                         0.0000  0.0000  0.0000  0.0000  0.0000
   8. (1.00000) CR ( 1)Cl  4            s(100.00%)
                                         1.0000  0.0000  0.0000  0.0000  0.0000
                                         0.0000  0.0000  0.0000  0.0000  0.0000
                                         0.0000  0.0000  0.0000  0.0000  0.0000
                                         0.0000  0.0000  0.0000  0.0000  0.0000
                                         0.0000  0.0000  0.0000  0.0000  0.0000
                                         0.0000  0.0000  0.0000  0.0000  0.0000
   9. (0.99999) CR ( 2)Cl  4            s(100.00%)
                                         0.0000  1.0000  0.0000  0.0000  0.0000
                                         0.0000  0.0000  0.0000  0.0000  0.0000
                                         0.0000  0.0000  0.0000  0.0000  0.0000
                                         0.0000  0.0000  0.0000  0.0000  0.0000
                                         0.0000  0.0000  0.0000  0.0000  0.0000
                                         0.0000  0.0000  0.0000  0.0000  0.0000
  10. (1.00000) CR ( 3)Cl  4            s(  0.00%)p 1.00(100.00%)
                                         0.0000  0.0000  0.0000  0.0000  0.0000
                                         0.0000  0.0000  1.0000  0.0000  0.0000
                                         0.0000  0.0000  0.0000  0.0000  0.0000
                                         0.0000  0.0000  0.0000  0.0000  0.0000
                                         0.0000  0.0000  0.0000  0.0000  0.0000
                                         0.0000  0.0000  0.0000  0.0000  0.0000
  11. (1.00000) CR ( 4)Cl  4            s(  0.00%)p 1.00(100.00%)
                                         0.0000  0.0000  0.0000  0.0000  0.0000
                                         0.0000  0.0000  0.0000  0.0000  0.0000
                                         0.0000  0.0000  0.0000  1.0000  0.0000
                                         0.0000  0.0000  0.0000  0.0000  0.0000
                                         0.0000  0.0000  0.0000  0.0000  0.0000
                                         0.0000  0.0000  0.0000  0.0000  0.0000
  12. (1.00000) CR ( 5)Cl  4            s(  0.00%)p 1.00(100.00%)
                                         0.0000  0.0000  0.0000  0.0000  0.0000
                                         0.0000  0.0000  0.0000  0.0000  0.0000
                                         0.0000  0.0000  0.0000  0.0000  0.0000
                                         0.0000  0.0000  0.0000  0.0000  1.0000
                                         0.0000  0.0000  0.0000  0.0000  0.0000
                                         0.0000  0.0000  0.0000  0.0000  0.0000
  13. (1.00000) CR ( 1)Cl  5            s(100.00%)
                                         1.0000  0.0000  0.0000  0.0000  0.0000
                                         0.0000  0.0000  0.0000  0.0000  0.0000
                                         0.0000  0.0000  0.0000  0.0000  0.0000
                                         0.0000  0.0000  0.0000  0.0000  0.0000
                                         0.0000  0.0000  0.0000  0.0000  0.0000
                                         0.0000  0.0000  0.0000  0.0000  0.0000
  14. (0.99999) CR ( 2)Cl  5            s(100.00%)
                                         0.0000  1.0000  0.0000  0.0000  0.0000
                                         0.0000  0.0000  0.0000  0.0000  0.0000
                                         0.0000  0.0000  0.0000  0.0000  0.0000
                                         0.0000  0.0000  0.0000  0.0000  0.0000
                                         0.0000  0.0000  0.0000  0.0000  0.0000
                                         0.0000  0.0000  0.0000  0.0000  0.0000
  15. (1.00000) CR ( 3)Cl  5            s(  0.00%)p 1.00(100.00%)
                                         0.0000  0.0000  0.0000  0.0000  0.0000
                                         0.0000  0.0000  1.0000  0.0000  0.0000
                                         0.0000  0.0000  0.0000  0.0000  0.0000
                                         0.0000  0.0000  0.0000  0.0000  0.0000
                                         0.0000  0.0000  0.0000  0.0000  0.0000
                                         0.0000  0.0000  0.0000  0.0000  0.0000
  16. (1.00000) CR ( 4)Cl  5            s(  0.00%)p 1.00(100.00%)
                                         0.0000  0.0000  0.0000  0.0000  0.0000
                                         0.0000  0.0000  0.0000  0.0000  0.0000
                                         0.0000  0.0000  0.0000  1.0000  0.0000
                                         0.0000  0.0000  0.0000  0.0000  0.0000
                                         0.0000  0.0000  0.0000  0.0000  0.0000
                                         0.0000  0.0000  0.0000  0.0000  0.0000
  17. (1.00000) CR ( 5)Cl  5            s(  0.00%)p 1.00(100.00%)
                                         0.0000  0.0000  0.0000  0.0000  0.0000
                                         0.0000  0.0000  0.0000  0.0000  0.0000
                                         0.0000  0.0000  0.0000  0.0000  0.0000
                                         0.0000  0.0000  0.0000  0.0000  1.0000
                                         0.0000  0.0000  0.0000  0.0000  0.0000
                                         0.0000  0.0000  0.0000  0.0000  0.0000
  18. (1.00000) CR ( 1)Cl  6            s(100.00%)
                                         1.0000  0.0000  0.0000  0.0000  0.0000
                                         0.0000  0.0000  0.0000  0.0000  0.0000
                                         0.0000  0.0000  0.0000  0.0000  0.0000
                                         0.0000  0.0000  0.0000  0.0000  0.0000
                                         0.0000  0.0000  0.0000  0.0000  0.0000
                                         0.0000  0.0000  0.0000  0.0000  0.0000
  19. (0.99999) CR ( 2)Cl  6            s(100.00%)
                                         0.0000  1.0000  0.0000  0.0000  0.0000
                                         0.0000  0.0000  0.0000  0.0000  0.0000
                                         0.0000  0.0000  0.0000  0.0000  0.0000
                                         0.0000  0.0000  0.0000  0.0000  0.0000
                                         0.0000  0.0000  0.0000  0.0000  0.0000
                                         0.0000  0.0000  0.0000  0.0000  0.0000
  20. (1.00000) CR ( 3)Cl  6            s(  0.00%)p 1.00(100.00%)
                                         0.0000  0.0000  0.0000  0.0000  0.0000
                                         0.0000  0.0000  1.0000  0.0000  0.0000
                                         0.0000  0.0000  0.0000  0.0000  0.0000
                                         0.0000  0.0000  0.0000  0.0000  0.0000
                                         0.0000  0.0000  0.0000  0.0000  0.0000
                                         0.0000  0.0000  0.0000  0.0000  0.0000
  21. (1.00000) CR ( 4)Cl  6            s(  0.00%)p 1.00(100.00%)
                                         0.0000  0.0000  0.0000  0.0000  0.0000
                                         0.0000  0.0000  0.0000  0.0000  0.0000
                                         0.0000  0.0000  0.0000  1.0000  0.0000
                                         0.0000  0.0000  0.0000  0.0000  0.0000
                                         0.0000  0.0000  0.0000  0.0000  0.0000
                                         0.0000  0.0000  0.0000  0.0000  0.0000
  22. (1.00000) CR ( 5)Cl  6            s(  0.00%)p 1.00(100.00%)
                                         0.0000  0.0000  0.0000  0.0000  0.0000
                                         0.0000  0.0000  0.0000  0.0000  0.0000
                                         0.0000  0.0000  0.0000  0.0000  0.0000
                                         0.0000  0.0000  0.0000  0.0000  1.0000
                                         0.0000  0.0000  0.0000  0.0000  0.0000
                                         0.0000  0.0000  0.0000  0.0000  0.0000
  23. (1.00000) CR ( 1)Cl  7            s(100.00%)
                                         1.0000  0.0000  0.0000  0.0000  0.0000
                                         0.0000  0.0000  0.0000  0.0000  0.0000
                                         0.0000  0.0000  0.0000  0.0000  0.0000
                                         0.0000  0.0000  0.0000  0.0000  0.0000
                                         0.0000  0.0000  0.0000  0.0000  0.0000
                                         0.0000  0.0000  0.0000  0.0000  0.0000
  24. (0.99999) CR ( 2)Cl  7            s(100.00%)
                                         0.0000  1.0000  0.0000  0.0000  0.0000
                                         0.0000  0.0000  0.0000  0.0000  0.0000
                                         0.0000  0.0000  0.0000  0.0000  0.0000
                                         0.0000  0.0000  0.0000  0.0000  0.0000
                                         0.0000  0.0000  0.0000  0.0000  0.0000
                                         0.0000  0.0000  0.0000  0.0000  0.0000
  25. (1.00000) CR ( 3)Cl  7            s(  0.00%)p 1.00(100.00%)
                                         0.0000  0.0000  0.0000  0.0000  0.0000
                                         0.0000  0.0000  1.0000  0.0000  0.0000
                                         0.0000  0.0000  0.0000  0.0000  0.0000
                                         0.0000  0.0000  0.0000  0.0000  0.0000
                                         0.0000  0.0000  0.0000  0.0000  0.0000
                                         0.0000  0.0000  0.0000  0.0000  0.0000
  26. (1.00000) CR ( 4)Cl  7            s(  0.00%)p 1.00(100.00%)
                                         0.0000  0.0000  0.0000  0.0000  0.0000
                                         0.0000  0.0000  0.0000  0.0000  0.0000
                                         0.0000  0.0000  0.0000  1.0000  0.0000
                                         0.0000  0.0000  0.0000  0.0000  0.0000
[...]
  Beta virt. eigenvalues --   24.81691  24.83577  24.83577  24.84089  25.83895
  Beta virt. eigenvalues --   25.89453  25.89453  25.91503  25.91504  25.92624
  Beta virt. eigenvalues --   26.42436  26.42436  26.72451  46.92333  47.07752
  Beta virt. eigenvalues --   47.07752  47.13186  47.13186  47.16535  48.50256
  Beta virt. eigenvalues --   48.50256  49.22134  69.49650  95.07506  95.07507
  Beta virt. eigenvalues --   95.12472 215.70771 215.70771 215.79082 634.02887
  Beta virt. eigenvalues --  634.02891 634.12496
          Condensed to atoms (all electrons):
               1          2          3          4          5          6
     1  C    0.934294  -0.138274  -0.245056  -0.244983  -0.244983  -0.230147
     2  C   -0.138274   7.096556  -0.091956  -0.092004  -0.092004  -0.242870
     3  Cl  -0.245056  -0.091956   0.154072   0.051648   0.051648   0.104087
     4  Cl  -0.244983  -0.092004   0.051648   0.154069   0.051620   0.031802
     5  Cl  -0.244983  -0.092004   0.051648   0.051620   0.154069   0.104098
     6  Cl  -0.230147  -0.242870   0.104087   0.031802   0.104098  16.946479
     7  Cl  -0.230118  -0.242876   0.031808   0.104082   0.104082   0.175729
     8  Cl  -0.230147  -0.242870   0.104087   0.104098   0.031802   0.175724
               7          8
     1  C   -0.230118  -0.230147
     2  C   -0.242876  -0.242870
     3  Cl   0.031808   0.104087
     4  Cl   0.104082   0.104098
     5  Cl   0.104082   0.031802
     6  Cl   0.175729   0.175724
     7  Cl  16.946466   0.175729
     8  Cl   0.175729  16.946479
          Atomic-Atomic Spin Densities.
               1          2          3          4          5          6
     1  C   -0.189656  -0.322143   0.049572   0.049552   0.049552   0.095043
     2  C   -0.322143  -1.078153   0.058888   0.058863   0.058863   0.179407
     3  Cl   0.049572   0.058888  -0.026894  -0.006380  -0.006380  -0.024760
     4  Cl   0.049552   0.058863  -0.006380  -0.026884  -0.006375  -0.007363
     5  Cl   0.049552   0.058863  -0.006380  -0.006375  -0.026884  -0.024753
     6  Cl   0.095043   0.179407  -0.024760  -0.007363  -0.024753  -0.226902
     7  Cl   0.095024   0.179403  -0.007367  -0.024749  -0.024749  -0.040712
     8  Cl   0.095043   0.179407  -0.024760  -0.024753  -0.007363  -0.040714
               7          8
     1  C    0.095024   0.095043
     2  C    0.179403   0.179407
     3  Cl  -0.007367  -0.024760
     4  Cl  -0.024749  -0.024753
     5  Cl  -0.024749  -0.007363
     6  Cl  -0.040712  -0.040714
     7  Cl  -0.226895  -0.040712
     8  Cl  -0.040712  -0.226902
 Mulliken charges and spin densities:
               1          2
     1  C    6.629412  -0.078012
     2  C    0.046298  -0.685464
     3  Cl  16.839661   0.011918
     4  Cl  16.839668   0.011911
     5  Cl  16.839668   0.011911
     6  Cl  -0.064903  -0.090753
     7  Cl  -0.064902  -0.090757
     8  Cl  -0.064903  -0.090753
 Sum of Mulliken charges =  57.00000  -1.00000
 Mulliken charges and spin densities with hydrogens summed into heavy atoms:
               1          2
     1  C    6.629412  -0.078012
     2  C    0.046298  -0.685464
     3  Cl  16.839661   0.011918
     4  Cl  16.839668   0.011911
     5  Cl  16.839668   0.011911
     6  Cl  -0.064903  -0.090753
     7  Cl  -0.064902  -0.090757
     8  Cl  -0.064903  -0.090753
         Mulliken charges and spin densities condensed to fragments:
      1     57.148409     -0.042273
      2     -0.148409     -0.957727
 Electronic spatial extent (au):  <R**2>=            987.1168
 Charge=             57.0000 electrons
 Dipole moment (field-independent basis, Debye):
    X=             -0.0000    Y=              0.0000    Z=            367.4277  Tot=            367.4277
 Quadrupole moment (field-independent basis, Debye-Ang):
   XX=            304.5062   YY=            304.5061   ZZ=            459.7493
   XY=             -0.0000   XZ=              0.0000   YZ=             -0.0000
 Traceless Quadrupole moment (field-independent basis, Debye-Ang):
   XX=            -51.7477   YY=            -51.7477   ZZ=            103.4954
   XY=             -0.0000   XZ=              0.0000   YZ=             -0.0000
 Octapole moment (field-independent basis, Debye-Ang**2):
  XXX=              0.0000  YYY=            288.7065  ZZZ=            868.3800  XYY=             -0.0000
  XXY=           -288.7063  XXZ=            543.4995  XZZ=             -0.0000  YZZ=              0.0000
  YYZ=            543.4996  XYZ=              0.0000
 Hexadecapole moment (field-independent basis, Debye-Ang**3):
 XXXX=            384.7521 YYYY=            384.7515 ZZZZ=            452.2804 XXXY=             -0.0000
 XXXZ=              0.0001 YYYX=             -0.0000 YYYZ=            421.5494 ZZZX=              0.0000
 ZZZY=             -0.0001 XXYY=            128.2506 XXZZ=            547.4539 YYZZ=            547.4537
 XXYZ=           -421.5495 YYXZ=             -0.0001 ZZXY=             -0.0000
 N-N= 2.475869051826D+02 E-N=-3.864901877071D+03  KE= 1.415225865044D+03
 --------------------------------------------------------
       Center         ----  Spin Dipole Couplings  ----
                      3XX-RR        3YY-RR        3ZZ-RR
 --------------------------------------------------------
     1   Atom        0.050201      0.050201     -0.100402
     2   Atom        0.412696      0.412696     -0.825391
     3   Atom        0.007439     -0.002978     -0.004461
     4   Atom       -0.000374      0.004835     -0.004461
     5   Atom       -0.000374      0.004835     -0.004461
     6   Atom        0.415854      0.402907     -0.818761
     7   Atom        0.396433      0.422324     -0.818757
     8   Atom        0.415854      0.402907     -0.818761
 --------------------------------------------------------
                        XY            XZ            YZ
 --------------------------------------------------------
     1   Atom       -0.000000      0.000000     -0.000000
     2   Atom       -0.000000     -0.000000      0.000001
     3   Atom        0.000000      0.000000     -0.011223
     4   Atom       -0.004511      0.009720      0.005612
     5   Atom        0.004511     -0.009720      0.005612
     6   Atom        0.011213      0.351936      0.203191
     7   Atom       -0.000000      0.000000     -0.406381
     8   Atom       -0.011213     -0.351936      0.203191
 --------------------------------------------------------


 ---------------------------------------------------------------------------------
              Anisotropic Spin Dipole Couplings in Principal Axis System
 ---------------------------------------------------------------------------------

       Atom             a.u.   MegaHertz   Gauss  10(-4) cm-1        Axes

              Baa    -0.1004   -13.473    -4.807    -4.494 -0.0000  0.0000  1.0000
     1 C(13)  Bbb     0.0502     6.736     2.404     2.247  1.0000  0.0000  0.0000
              Bcc     0.0502     6.736     2.404     2.247 -0.0000  1.0000 -0.0000
 
              Baa    -0.8254  -110.760   -39.522   -36.945  0.0000 -0.0000  1.0000
     2 C(13)  Bbb     0.4127    55.380    19.761    18.473  0.0000  1.0000  0.0000
              Bcc     0.4127    55.380    19.761    18.473  1.0000 -0.0000 -0.0000
 
              Baa    -0.0150    -0.783    -0.280    -0.261 -0.0000  0.6834  0.7300
     3 Cl(35) Bbb     0.0074     0.389     0.139     0.130  1.0000  0.0000  0.0000
              Bcc     0.0075     0.394     0.141     0.131 -0.0000  0.7300 -0.6834
 
              Baa    -0.0150    -0.783    -0.280    -0.261 -0.5918 -0.3417  0.7300
     4 Cl(35) Bbb     0.0074     0.389     0.139     0.130 -0.5000  0.8660 -0.0000
              Bcc     0.0075     0.394     0.141     0.131  0.6322  0.3650  0.6834
 
              Baa    -0.0150    -0.783    -0.280    -0.261  0.5918 -0.3417  0.7300
     5 Cl(35) Bbb     0.0074     0.389     0.139     0.130  0.5000  0.8660 -0.0000
              Bcc     0.0075     0.394     0.141     0.131 -0.6322  0.3650  0.6834
 
              Baa    -0.9400   -49.197   -17.555   -16.410 -0.2476 -0.1429  0.9583
     6 Cl(35) Bbb     0.3964    20.748     7.404     6.921 -0.5000  0.8660 -0.0000
              Bcc     0.5436    28.448    10.151     9.489  0.8299  0.4791  0.2859
 
              Baa    -0.9400   -49.196   -17.555   -16.410 -0.0000  0.2859  0.9583
     7 Cl(35) Bbb     0.3964    20.748     7.404     6.921  1.0000  0.0000 -0.0000
              Bcc     0.5435    28.448    10.151     9.489 -0.0000  0.9583 -0.2859
 
              Baa    -0.9400   -49.197   -17.555   -16.410  0.2476 -0.1429  0.9583
     8 Cl(35) Bbb     0.3964    20.748     7.404     6.921  0.5000  0.8660 -0.0000
              Bcc     0.5436    28.448    10.151     9.489  0.8299 -0.4791 -0.2859
 

 ---------------------------------------------------------------------------------

 Running external command "gaunbo7 R"
         input file       "/scr/ericg/b.11.3.3b/Gau-17071.EIn"
         output file      "/scr/ericg/b.11.3.3b/Gau-17071.EOu"
         message file     "/scr/ericg/b.11.3.3b/Gau-17071.EMs"
         fchk file        "/scr/ericg/b.11.3.3b/Gau-17071.EFC"
         mat. el file     "/scr/ericg/b.11.3.3b/Gau-17071.EUF"

 Writing WrtUnf unformatted file "/scr/ericg/b.11.3.3b/Gau-17071.EUF"
 Gaussian matrix elements                                         Version   2 NLab=11 Len12L=8 Len4L=8
 Write SHELL TO ATOM MAP                   from file      0 offset           0 length                  90 to matrix element file.
 Write SHELL TYPES                         from file      0 offset           0 length                  90 to matrix element file.
 Write NUMBER OF PRIMITIVES PER SHELL      from file      0 offset           0 length                  90 to matrix element file.
 Write PRIMITIVE EXPONENTS                 from file      0 offset           0 length                 176 to matrix element file.
 Write CONTRACTION COEFFICIENTS            from file      0 offset           0 length                 176 to matrix element file.
 Write P(S=P) CONTRACTION COEFFICIENTS     from file      0 offset           0 length                 176 to matrix element file.
 Write COORDINATES OF EACH SHELL           from file      0 offset           0 length                 270 to matrix element file.
 Write BONDS PER ATOM                      from file      0 offset           0 length                   8 to matrix element file.
 Write BONDED ATOMS                        from file      0 offset           0 length                  14 to matrix element file.
 Write BOND TYPES                          from file      0 offset           0 length                  14 to matrix element file.
 Write ONIOM CHARGE/MULT                   from file      0 offset           0 length                  32 to matrix element file.
 Write ONIOM ATOM LAYERS                   from file      0 offset           0 length                   8 to matrix element file.
 Write ONIOM ATOM MODIFIERS                from file      0 offset           0 length                   8 to matrix element file.
 Write ONIOM ATOM TYPES                    from file      0 offset           0 length                   8 to matrix element file.
 Write ONIOM LINK ATOMS                    from file      0 offset           0 length                   8 to matrix element file.
 Write ONIOM LINK CHARGES                  from file      0 offset           0 length                   8 to matrix element file.
 Write ONIOM LINK DISTANCES                from file      0 offset           0 length                  32 to matrix element file.
 Write SYMINF INTS                         from file      0 offset           0 length                  26 to matrix element file.
 Write ROTTR TO SO                         from file      0 offset           0 length                  12 to matrix element file.
 Write GAUSSIAN SCALARS                    from file    501 offset           0 to matrix element file.
 Write OPTIMIZATION FLAGS                  from file      0 offset           0 length                   8 to matrix element file.
 Write INTEGER ISO                         from file      0 offset           0 length                   8 to matrix element file.
 Write INTEGER FRAGMENT                    from file      0 offset           0 length                   8 to matrix element file.
 Write INTEGER SPIN                        from file      0 offset           0 length                   8 to matrix element file.
 Write REAL ZEFFECTIVE                     from file      0 offset           0 length                   8 to matrix element file.
 Write REAL QUADRUPOLEMOMENT               from file      0 offset           0 length                   8 to matrix element file.
 Write REAL GFACTOR                        from file      0 offset           0 length                   8 to matrix element file.
 Write REAL ZNUCLEAR                       from file      0 offset           0 length                   8 to matrix element file.
 Write MULLIKEN CHARGES                    from file      0 offset           0 length                   8 to matrix element file.
 Write NUCLEAR GRADIENT                    from file  10584 offset           0 length                  24 to matrix element file.
 Array NUCLEAR FORCE CONSTANTS              on  file  10585 does not exist.
 Write ELECTRIC DIPOLE MOMENT              from file      0 offset           0 length                   3 to matrix element file.
 Write NON-ADIABATIC COUPLING              from file  10810 offset           0 length                  24 to matrix element file.
 Write ELECTRONS PER FRAGMENT              from file      0 offset           0 length                   8 to matrix element file.
 Write BASIS FUNCTIONS PER FRAGMENT        from file      0 offset           0 length                  96 to matrix element file.
 Write FINITE EM FIELD                     from file  10521 offset           0 length                  35 to matrix element file.
 Write OVERLAP                             from file  10514 offset           0 length               25200 to matrix element file.
 Write CORE HAMILTONIAN ALPHA              from file  10515 offset           0 length               25200 to matrix element file.
 Write CORE HAMILTONIAN BETA               from file  10515 offset       25200 length               25200 to matrix element file.
 Write KINETIC ENERGY                      from file  10516 offset           0 length               25200 to matrix element file.
 Array ORTHOGONAL BASIS                     on  file  10685 does not exist.
 Write DIPOLE INTEGRALS                    from file  10518 offset           0 length               75600 to matrix element file.
 Array DIP VEL INTEGRALS                    on  file  10572 does not exist.
 Array R X DEL INTEGRALS                    on  file  10572 does not exist.
 Write ALPHA ORBITAL ENERGIES              from file      0 offset           0 length                 224 to matrix element file.
 Write BETA ORBITAL ENERGIES               from file      0 offset           0 length                 224 to matrix element file.
 Write ALPHA MO COEFFICIENTS               from file  10524 offset           0 length               50176 to matrix element file.
 Write BETA MO COEFFICIENTS                from file  10526 offset           0 length               50176 to matrix element file.
 Write ALPHA DENSITY MATRIX                from file      0 offset           0 length               25200 to matrix element file.
 Write BETA DENSITY MATRIX                 from file      0 offset           0 length               25200 to matrix element file.
 Write ALPHA FOCK MATRIX                   from file  10536 offset           0 length               25200 to matrix element file.
 Write BETA FOCK MATRIX                    from file  10538 offset           0 length               25200 to matrix element file.
 Write ENERGY-WEIGHTED DENSITY             from file  10571 offset           0 length               25200 to matrix element file.
 Write FRAGMENT DENSITY MATRICES           from file  10774 offset           0 length              100800 to matrix element file.
 Write FRAGMENT OPERATOR MATRICES          from file  10823 offset           0 length              705632 to matrix element file.
 Write ALPHA SCF DENSITY MATRIX            from file      0 offset           0 length               25200 to matrix element file.
 Write BETA SCF DENSITY MATRIX             from file      0 offset           0 length               25200 to matrix element file.
 Write INTEGER PARAMETERS                  from file      0 offset           0 length                   2 to matrix element file.
 No 2e integrals to process.
 Perform NBO analysis...executing G16NBO...


 Natural Energy Decomposition Analysis (Summary):

                                                            Component
                    Energy(wfn)        Energy(wfn)          (kcal/mol)
 ------------------------------------------------------------------------------
 C2Cl6         -2837.5324060(scf) -2836.8716070(loc)      CT = -414.658
                                                          ES = -133.329
                                                         POL =  -23.730
                                                          XC =  -58.864
 1. CCl3       -1418.2637552(def) -1418.7135904(rel) DEF(SE) =  282.276(  6.872)
 2. CCl3       -1418.2637552(def) -1418.7135904(rel) DEF(SE) =  282.276(  6.872)
                                                              ---------
                                                           E =  -66.030


 Electrical (ES+POL+SE) :   -143.316
   Charge Transfer (CT) :   -414.658
       Core (XC+DEF-SE) :    491.944
                        ------------
  Total Interaction (E) :    -66.030


 Dipole moments:

   1. CCl3
      Dipole (def):    0.0000(x),  -0.0001(y),  -0.5297(z);   0.5297(tot) Debye
      Dipole (rel):    0.0000(x),   0.0000(y),   0.0870(z);   0.0870(tot) Debye
      Dipole (ind):    0.0000(x),  -0.0001(y),  -0.6167(z);   0.6167(tot) Debye
   2. CCl3
      Dipole (def):    0.0000(x),   0.0001(y),   0.5297(z);   0.5297(tot) Debye
      Dipole (rel):    0.0000(x),   0.0000(y),  -0.0870(z);   0.0870(tot) Debye
      Dipole (ind):    0.0000(x),   0.0001(y),   0.6167(z);   0.6167(tot) Debye

 Opening RunExU unformatted file "/scr/ericg/b.11.3.3b/Gau-17071.EUF"
 Read unf file /scr/ericg/b.11.3.3b/Gau-17071.EUF:
 Label Gaussian matrix elements                                         IVers= 2 NLab= 2 Version=ES64L-G16RevC.01
 Title Hexachloroethane...b3lyp/6-311++g**                             
 NAtoms=     8 NBasis=   224 NBsUse=   224 ICharg=     0 Multip=     1 NE=   114 Len12L=8 Len4L=8 IOpCl= 1 ICGU=112
 GAUSSIAN SCALARS                    NI= 1 NR= 1 NTot=       1 LenBuf=    2 NRI=1 N=    1000
 Recovered energy= -1418.71359042     dipole=     -0.000000000005      0.000007257626    144.557170054087
 Unable to Open any file for archive entry.
 1\1\GINC-NEUTRON\SP\UB3LYP\6-311++G(d,p)\C2Cl6\ERICG\20-May-2020\0\\#b
 3lyp/6-311++g** neda=2\\Hexachloroethane...b3lyp/6-311++g**\\0,1\C,0,0
 .,0.,0.795709\C,0,0.,0.,-0.795709\Cl,0,0.,1.684716,1.406671\Cl,0,-1.45
 9007,-0.842358,1.406671\Cl,0,1.459007,-0.842358,1.406671\Cl,0,1.459007
 ,0.842358,-1.406671\Cl,0,0.,-1.684716,-1.406671\Cl,0,-1.459007,0.84235
 8,-1.406671\\Version=ES64L-G16RevC.01\HF=-1418.7135904\S2=0.753989\S2-
 1=0.\S2A=3.762621\RMSD=1.612e-09\Dipole=0.,0.0000073,144.5571701\Quadr
 upole=-38.4731272,-38.473176,76.9463032,0.,0.,-0.0000044\PG=D03D [C3(C
 1.C1),3SGD(Cl2)]\\@
 The archive entry for this job was punched.


 THE POLHOLDE ROLLS WITHOUT SLIPPING ON THE HERPOLHOLDE LYING IN
 THE INVARIABLE PLANE.
 H.GOLDSTEIN, "CLASSICAL MECHANICS", PG 161
 Job cpu time:       0 days  0 hours 16 minutes  7.8 seconds.
 Elapsed time:       0 days  0 hours  4 minutes 11.0 seconds.
 File lengths (MBytes):  RWF=     69 Int=      0 D2E=      0 Chk=     13 Scr=      1
 Normal termination of Gaussian 16 at Wed May 20 10:20:20 2020.
