 Entering Gaussian System, Link 0=/opt/g16.c01/g16/g16
 Initial command:
 /opt/g16.c01/g16/l1.exe "/scr/ericg/dimer/Gau-15097.inp" -scrdir="/scr/ericg/dimer/"
 Entering Link 1 = /opt/g16.c01/g16/l1.exe PID=     15099.
  
 Copyright (c) 1988-2019, Gaussian, Inc.  All Rights Reserved.
  
 This is part of the Gaussian(R) 16 program.  It is based on
 the Gaussian(R) 09 system (copyright 2009, Gaussian, Inc.),
 the Gaussian(R) 03 system (copyright 2003, Gaussian, Inc.),
 the Gaussian(R) 98 system (copyright 1998, Gaussian, Inc.),
 the Gaussian(R) 94 system (copyright 1995, Gaussian, Inc.),
 the Gaussian 92(TM) system (copyright 1992, Gaussian, Inc.),
 the Gaussian 90(TM) system (copyright 1990, Gaussian, Inc.),
 the Gaussian 88(TM) system (copyright 1988, Gaussian, Inc.),
 the Gaussian 86(TM) system (copyright 1986, Carnegie Mellon
 University), and the Gaussian 82(TM) system (copyright 1983,
 Carnegie Mellon University). Gaussian is a federally registered
 trademark of Gaussian, Inc.
  
 This software contains proprietary and confidential information,
 including trade secrets, belonging to Gaussian, Inc.
  
 This software is provided under written license and may be
 used, copied, transmitted, or stored only in accord with that
 written license.
  
 The following legend is applicable only to US Government
 contracts under FAR:
  
                    RESTRICTED RIGHTS LEGEND
  
 Use, reproduction and disclosure by the US Government is
 subject to restrictions as set forth in subparagraphs (a)
 and (c) of the Commercial Computer Software - Restricted
 Rights clause in FAR 52.227-19.
  
 Gaussian, Inc.
 340 Quinnipiac St., Bldg. 40, Wallingford CT 06492
  
  
 ---------------------------------------------------------------
 Warning -- This program may not be used in any manner that
 competes with the business of Gaussian, Inc. or will provide
 assistance to any competitor of Gaussian, Inc.  The licensee
 of this program is prohibited from giving any competitor of
 Gaussian, Inc. access to this program.  By using this program,
 the user acknowledges that Gaussian, Inc. is engaged in the
 business of creating and licensing software in the field of
 computational chemistry and represents and warrants to the
 licensee that it is not a competitor of Gaussian, Inc. and that
 it will not use this program in any manner prohibited above.
 ---------------------------------------------------------------
  

 Cite this work as:
 Gaussian 16, Revision C.01,
 M. J. Frisch, G. W. Trucks, H. B. Schlegel, G. E. Scuseria, 
 M. A. Robb, J. R. Cheeseman, G. Scalmani, V. Barone, 
 G. A. Petersson, H. Nakatsuji, X. Li, M. Caricato, A. V. Marenich, 
 J. Bloino, B. G. Janesko, R. Gomperts, B. Mennucci, H. P. Hratchian, 
 J. V. Ortiz, A. F. Izmaylov, J. L. Sonnenberg, D. Williams-Young, 
 F. Ding, F. Lipparini, F. Egidi, J. Goings, B. Peng, A. Petrone, 
 T. Henderson, D. Ranasinghe, V. G. Zakrzewski, J. Gao, N. Rega, 
 G. Zheng, W. Liang, M. Hada, M. Ehara, K. Toyota, R. Fukuda, 
 J. Hasegawa, M. Ishida, T. Nakajima, Y. Honda, O. Kitao, H. Nakai, 
 T. Vreven, K. Throssell, J. A. Montgomery, Jr., J. E. Peralta, 
 F. Ogliaro, M. J. Bearpark, J. J. Heyd, E. N. Brothers, K. N. Kudin, 
 V. N. Staroverov, T. A. Keith, R. Kobayashi, J. Normand, 
 K. Raghavachari, A. P. Rendell, J. C. Burant, S. S. Iyengar, 
 J. Tomasi, M. Cossi, J. M. Millam, M. Klene, C. Adamo, R. Cammi, 
 J. W. Ochterski, R. L. Martin, K. Morokuma, O. Farkas, 
 J. B. Foresman, and D. J. Fox, Gaussian, Inc., Wallingford CT, 2019.
 
 ******************************************
 Gaussian 16:  ES64L-G16RevC.01  3-Jul-2019
                20-May-2020 
 ******************************************
 %nproc=4
 Will use up to    4 processors via shared memory.
 --------------------
 # b3lyp/4-31g neda=2
 --------------------
 1/38=1,62=2,160=70,172=1/1;
 2/12=2,17=6,18=5,40=1/2;
 1/38=1,53=2,62=2,63=1,160=70/22;
 3/5=1,11=2,25=1,30=1,74=-5/1,2,3;
 4//1;
 5/5=2,38=5/2;
 6/7=2,8=2,9=2,10=2,28=1,40=111,113=1,114=1,124=2103/1,12(1);
 99/5=1,9=1/99;
 5/5=2,7=1,13=1,38=1,48=100000/2;
 6/7=2,8=2,9=2,10=2,28=1,40=203,113=1,114=1,124=2103/12(-1);
 1/53=2,62=2,63=1,160=70/22;
 3/5=7,6=11,11=2,25=1,30=1,74=-5,82=7/1,2,3;
 4/5=19/1;
 5/5=2,38=1,48=100000,185=1/2;
 1/53=2,62=2,63=1,160=70/22(-3);
 2//2;
 6/7=2,8=2,9=2,10=2,19=2,28=1,40=301,113=1,114=1,124=2103/1,12;
 99/5=1,9=1/99;
 ------------------------------------------------------------------
 Water dimer...b3lyp/4-31g//Umeyama, Morokuma, JACS 99, 1316 (1977)
 ------------------------------------------------------------------
 Symbolic Z-matrix:
 Charge =  0 Multiplicity = 1 in supermolecule
 Charge =  0 Multiplicity = 1 in fragment      1.
 Charge =  0 Multiplicity = 1 in fragment      2.
 O(fragment=1)        -0.00416  -1.4257    0. 
 H(fragment=1)         0.4987   -1.71603   0.75946 
 H(fragment=1)         0.4987   -1.71603  -0.75946 
 O(fragment=2)        -0.00416   1.5543    0. 
 H(fragment=2)        -0.92671   1.80495   0. 
 H(fragment=2)        -0.00416   0.5983    0. 
 
                          Input orientation:                          
 ---------------------------------------------------------------------
 Center     Atomic      Atomic             Coordinates (Angstroms)
 Number     Number       Type             X           Y           Z
 ---------------------------------------------------------------------
      1          8           0       -0.004158   -1.425700    0.000000
      2          1           0        0.498701   -1.716026    0.759460
      3          1           0        0.498701   -1.716026   -0.759460
      4          8           0       -0.004158    1.554300    0.000000
      5          1           0       -0.926714    1.804953    0.000000
      6          1           0       -0.004158    0.598300    0.000000
 ---------------------------------------------------------------------
                    Distance matrix (angstroms):
                    1          2          3          4          5
     1  O    0.000000
     2  H    0.956000   0.000000
     3  H    0.956000   1.518920   0.000000
     4  O    2.980000   3.394802   3.394802   0.000000
     5  H    3.359796   3.873742   3.873742   0.956000   0.000000
     6  H    2.024000   2.487117   2.487117   0.956000   1.518921
                    6
     6  H    0.000000
 Stoichiometry    H4O2
 Framework group  CS[SG(H2O2),X(H2)]
 Deg. of freedom     8
 Full point group                 CS      NOp   2
 Largest Abelian subgroup         CS      NOp   2
 Largest concise Abelian subgroup CS      NOp   2
                         Standard orientation:                         
 ---------------------------------------------------------------------
 Center     Atomic      Atomic             Coordinates (Angstroms)
 Number     Number       Type             X           Y           Z
 ---------------------------------------------------------------------
      1          8           0       -0.004158   -1.425700   -0.000000
      2          1           0        0.498701   -1.716026    0.759460
      3          1           0        0.498701   -1.716026   -0.759460
      4          8           0       -0.004158    1.554300    0.000000
      5          1           0       -0.926714    1.804953    0.000000
      6          1           0       -0.004158    0.598300    0.000000
 ---------------------------------------------------------------------
 Rotational constants (GHZ):         212.1031352           6.1621506           6.1578308
 NEDA: doing full-system calculation.
 Standard basis: 4-31G (6D, 7F)
 There are    20 symmetry adapted cartesian basis functions of A'  symmetry.
 There are     6 symmetry adapted cartesian basis functions of A"  symmetry.
 There are    20 symmetry adapted basis functions of A'  symmetry.
 There are     6 symmetry adapted basis functions of A"  symmetry.
    26 basis functions,    56 primitive gaussians,    26 cartesian basis functions
    10 alpha electrons       10 beta electrons
       nuclear repulsion energy        36.3191422632 Hartrees.
 NAtoms=    6 NActive=    6 NUniq=    5 SFac= 1.44D+00 NAtFMM=   60 NAOKFM=F Big=F
 Integral buffers will be    131072 words long.
 Raffenetti 2 integral format.
 Two-electron integral symmetry is turned on.
 One-electron integrals computed using PRISM.
 NBasis=    26 RedAO= T EigKep=  5.38D-02  NBF=    20     6
 NBsUse=    26 1.00D-06 EigRej= -1.00D+00 NBFU=    20     6
 ExpMin= 1.61D-01 ExpMax= 8.83D+02 ExpMxC= 8.83D+02 IAcc=3 IRadAn=         5 AccDes= 0.00D+00
 Harris functional with IExCor=  402 and IRadAn=       5 diagonalized for initial guess.
 HarFok:  IExCor=  402 AccDes= 0.00D+00 IRadAn=         5 IDoV= 1 UseB2=F ITyADJ=14
 ICtDFT=  3500011 ScaDFX=  1.000000  1.000000  1.000000  1.000000
 FoFCou: FMM=F IPFlag=           0 FMFlag=      100000 FMFlg1=           0
         NFxFlg=           0 DoJE=T BraDBF=F KetDBF=T FulRan=T
         wScrn=  0.000000 ICntrl=       500 IOpCl=  0 I1Cent=   200000004 NGrid=           0
         NMat0=    1 NMatS0=      1 NMatT0=    0 NMatD0=    1 NMtDS0=    0 NMtDT0=    0
 Petite list used in FoFCou.
 Initial guess orbital symmetries:
       Occupied  (A') (A') (A') (A') (A') (A") (A') (A') (A') (A")
       Virtual   (A') (A') (A") (A') (A") (A') (A') (A') (A") (A')
                 (A') (A') (A") (A') (A') (A')
 The electronic state of the initial guess is 1-A'.
 Keep R1 ints in memory in symmetry-blocked form, NReq=3517230.
 Requested convergence on RMS density matrix=1.00D-08 within 128 cycles.
 Requested convergence on MAX density matrix=1.00D-06.
 Requested convergence on             energy=1.00D-06.
 No special actions if energy rises.
 Integral accuracy reduced to 1.0D-05 until final iterations.
 Initial convergence to 1.0D-05 achieved.  Increase integral accuracy.
 SCF Done:  E(RB3LYP) =  -152.628525620     A.U. after   10 cycles
            NFock= 10  Conv=0.66D-08     -V/T= 2.0040

 **********************************************************************

            Population analysis using the SCF Density.

 **********************************************************************

 Orbital symmetries:
       Occupied  (A') (A') (A') (A') (A") (A') (A') (A') (A') (A")
       Virtual   (A') (A') (A") (A') (A") (A') (A') (A') (A') (A")
                 (A') (A') (A") (A') (A') (A')
 The electronic state is 1-A'.
 Alpha  occ. eigenvalues --  -19.12646 -19.04960  -1.05017  -0.97760  -0.56330
 Alpha  occ. eigenvalues --   -0.49680  -0.39365  -0.33378  -0.31013  -0.25542
 Alpha virt. eigenvalues --    0.03510   0.11374   0.12969   0.24406   0.79108
 Alpha virt. eigenvalues --    0.84718   0.88136   0.95056   0.96064   0.98772
 Alpha virt. eigenvalues --    1.03517   1.06233   1.10616   1.22885   1.48932
 Alpha virt. eigenvalues --    1.81793
          Condensed to atoms (all electrons):
               1          2          3          4          5          6
     1  O    8.150391   0.248196   0.248196  -0.009898   0.000361   0.049628
     2  H    0.248196   0.416895  -0.033510   0.000783   0.000004  -0.002991
     3  H    0.248196  -0.033510   0.416895   0.000783   0.000004  -0.002991
     4  O   -0.009898   0.000783   0.000783   8.275304   0.248675   0.238278
     5  H    0.000361   0.000004   0.000004   0.248675   0.452287  -0.039386
     6  H    0.049628  -0.002991  -0.002991   0.238278  -0.039386   0.395965
 Mulliken charges:
               1
     1  O   -0.686874
     2  H    0.370623
     3  H    0.370623
     4  O   -0.753925
     5  H    0.338056
     6  H    0.361498
 Sum of Mulliken charges =   0.00000
 Mulliken charges with hydrogens summed into heavy atoms:
               1
     1  O    0.054372
     4  O   -0.054372
         Mulliken charges condensed to fragments:
      1      0.054372
      2     -0.054372
 Electronic spatial extent (au):  <R**2>=            196.0260
 Charge=              0.0000 electrons
 Dipole moment (field-independent basis, Debye):
    X=              0.2780    Y=             -3.3766    Z=             -0.0000  Tot=              3.3880
 Quadrupole moment (field-independent basis, Debye-Ang):
   XX=            -11.0380   YY=            -12.6750   ZZ=            -11.3012
   XY=             -7.3639   XZ=             -0.0000   YZ=              0.0000
 Traceless Quadrupole moment (field-independent basis, Debye-Ang):
   XX=              0.6334   YY=             -1.0035   ZZ=              0.3702
   XY=             -7.3639   XZ=             -0.0000   YZ=              0.0000
 Octapole moment (field-independent basis, Debye-Ang**2):
  XXX=             -0.6342  YYY=            -14.6611  ZZZ=             -0.0000  XYY=              0.0321
  XXY=              0.8765  XXZ=             -0.0000  XZZ=              1.0235  YZZ=             -5.3366
  YYZ=             -0.0000  XYZ=              0.0000
 Hexadecapole moment (field-independent basis, Debye-Ang**3):
 XXXX=            -11.2304 YYYY=           -176.7514 ZZZZ=            -10.7495 XXXY=              0.7535
 XXXZ=             -0.0000 YYYX=            -19.4236 YYYZ=              0.0000 ZZZX=             -0.0000
 ZZZY=              0.0000 XXYY=            -26.4725 XXZZ=             -3.5828 YYZZ=            -27.7526
 XXYZ=              0.0000 YYXZ=             -0.0000 ZZXY=             -0.4548
 N-N= 3.631914226325D+01 E-N=-4.339332769805D+02  KE= 1.520275282597D+02
 Symmetry A'   KE= 1.438200374122D+02
 Symmetry A"   KE= 8.207490847481D+00
 Running external command "gaunbo7 R"
         input file       "/scr/ericg/dimer/Gau-15099.EIn"
         output file      "/scr/ericg/dimer/Gau-15099.EOu"
         message file     "/scr/ericg/dimer/Gau-15099.EMs"
         fchk file        "/scr/ericg/dimer/Gau-15099.EFC"
         mat. el file     "/scr/ericg/dimer/Gau-15099.EUF"

 Writing WrtUnf unformatted file "/scr/ericg/dimer/Gau-15099.EUF"
 Gaussian matrix elements                                         Version   2 NLab=11 Len12L=8 Len4L=8
 Write SHELL TO ATOM MAP                   from file      0 offset           0 length                  14 to matrix element file.
 Write SHELL TYPES                         from file      0 offset           0 length                  14 to matrix element file.
 Write NUMBER OF PRIMITIVES PER SHELL      from file      0 offset           0 length                  14 to matrix element file.
 Write PRIMITIVE EXPONENTS                 from file      0 offset           0 length                  32 to matrix element file.
 Write CONTRACTION COEFFICIENTS            from file      0 offset           0 length                  32 to matrix element file.
 Write P(S=P) CONTRACTION COEFFICIENTS     from file      0 offset           0 length                  32 to matrix element file.
 Write COORDINATES OF EACH SHELL           from file      0 offset           0 length                  42 to matrix element file.
 Write BONDS PER ATOM                      from file      0 offset           0 length                   6 to matrix element file.
 Write BONDED ATOMS                        from file      0 offset           0 length                   8 to matrix element file.
 Write BOND TYPES                          from file      0 offset           0 length                   8 to matrix element file.
 Write ONIOM CHARGE/MULT                   from file      0 offset           0 length                  32 to matrix element file.
 Write ONIOM ATOM LAYERS                   from file      0 offset           0 length                   6 to matrix element file.
 Write ONIOM ATOM MODIFIERS                from file      0 offset           0 length                   6 to matrix element file.
 Write ONIOM ATOM TYPES                    from file      0 offset           0 length                   6 to matrix element file.
 Write ONIOM LINK ATOMS                    from file      0 offset           0 length                   6 to matrix element file.
 Write ONIOM LINK CHARGES                  from file      0 offset           0 length                   6 to matrix element file.
 Write ONIOM LINK DISTANCES                from file      0 offset           0 length                  24 to matrix element file.
 Write SYMINF INTS                         from file      0 offset           0 length                  26 to matrix element file.
 Write ROTTR TO SO                         from file      0 offset           0 length                  12 to matrix element file.
 Write GAUSSIAN SCALARS                    from file    501 offset           0 to matrix element file.
 Write OPTIMIZATION FLAGS                  from file      0 offset           0 length                   6 to matrix element file.
 Write INTEGER ISO                         from file      0 offset           0 length                   6 to matrix element file.
 Write INTEGER FRAGMENT                    from file      0 offset           0 length                   6 to matrix element file.
 Write INTEGER SPIN                        from file      0 offset           0 length                   6 to matrix element file.
 Write REAL ZEFFECTIVE                     from file      0 offset           0 length                   6 to matrix element file.
 Write REAL GFACTOR                        from file      0 offset           0 length                   6 to matrix element file.
 Write REAL ZNUCLEAR                       from file      0 offset           0 length                   6 to matrix element file.
 Write MULLIKEN CHARGES                    from file      0 offset           0 length                   6 to matrix element file.
 Write NUCLEAR GRADIENT                    from file  10584 offset           0 length                  18 to matrix element file.
 Array NUCLEAR FORCE CONSTANTS              on  file  10585 does not exist.
 Write ELECTRIC DIPOLE MOMENT              from file      0 offset           0 length                   3 to matrix element file.
 Write NON-ADIABATIC COUPLING              from file  10810 offset           0 length                  18 to matrix element file.
 Write ELECTRONS PER FRAGMENT              from file      0 offset           0 length                   8 to matrix element file.
 Write BASIS FUNCTIONS PER FRAGMENT        from file      0 offset           0 length                  96 to matrix element file.
 Write FINITE EM FIELD                     from file  10521 offset           0 length                  35 to matrix element file.
 Write OVERLAP                             from file  10514 offset           0 length                 351 to matrix element file.
 Write CORE HAMILTONIAN ALPHA              from file  10515 offset           0 length                 351 to matrix element file.
 Write CORE HAMILTONIAN BETA               from file  10515 offset         351 length                 351 to matrix element file.
 Write KINETIC ENERGY                      from file  10516 offset           0 length                 351 to matrix element file.
 Write ORTHOGONAL BASIS                    from file  10685 offset           0 length                 676 to matrix element file.
 Write DIPOLE INTEGRALS                    from file  10518 offset           0 length                1053 to matrix element file.
 Array DIP VEL INTEGRALS                    on  file  10572 does not exist.
 Array R X DEL INTEGRALS                    on  file  10572 does not exist.
 Write ALPHA ORBITAL ENERGIES              from file      0 offset           0 length                  26 to matrix element file.
 Write ALPHA MO COEFFICIENTS               from file  10524 offset           0 length                 676 to matrix element file.
 Write ALPHA DENSITY MATRIX                from file      0 offset           0 length                 351 to matrix element file.
 Write ALPHA FOCK MATRIX                   from file  10536 offset           0 length                 351 to matrix element file.
 Write ENERGY-WEIGHTED DENSITY             from file  10571 offset           0 length                 351 to matrix element file.
 Write ALPHA SCF DENSITY MATRIX            from file      0 offset           0 length                 351 to matrix element file.
 Write INTEGER PARAMETERS                  from file      0 offset           0 length                   2 to matrix element file.
 No 2e integrals to process.
 Perform NBO analysis...executing G16NBO...

 *********************************** NBO 7.0 ***********************************
             N A T U R A L   A T O M I C   O R B I T A L   A N D
          N A T U R A L   B O N D   O R B I T A L   A N A L Y S I S
 ************************ development version (D000000) ************************
  (c) Copyright 1996-2020 Board of Regents of the University of Wisconsin System
      on behalf of the Theoretical Chemistry Institute.  All rights reserved.

          Cite this program [NBO 7.0.9 (21-May-2020)] as:

          NBO 7.0.  E. D. Glendening, J. K. Badenhoop, A. E. Reed,
          J. E. Carpenter, J. A. Bohmann, C. M. Morales, P. Karafiloglou,
          C. R. Landis, and F. Weinhold, Theoretical Chemistry Institute,
          University of Wisconsin, Madison, WI (2018)


 Filename set to /scr/ericg/dimer/Gau-15099

 Job title: Water dimer...b3lyp/4-31g//Umeyama, Morokuma, JACS 99, 1316 (1977)


 NATURAL POPULATIONS:  Natural atomic orbital occupancies

  NAO Atom No lang   Type(AO)    Occupancy      Energy
 -------------------------------------------------------
   1    O  1  s      Cor( 1s)     1.99994     -19.12569
   2    O  1  s      Val( 2s)     1.76730      -0.78770
   3    O  1  s      Ryd( 3s)     0.00160       1.52644
   4    O  1  px     Val( 2p)     1.79092      -0.32188
   5    O  1  px     Ryd( 3p)     0.00050       0.96473
   6    O  1  py     Val( 2p)     1.90679      -0.32320
   7    O  1  py     Ryd( 3p)     0.00105       1.05545
   8    O  1  pz     Val( 2p)     1.45696      -0.29123
   9    O  1  pz     Ryd( 3p)     0.00264       1.06977

  10    H  2  s      Val( 1s)     0.52119       0.12917
  11    H  2  s      Ryd( 2s)     0.00212       0.53510

  12    H  3  s      Val( 1s)     0.52119       0.12917
  13    H  3  s      Ryd( 2s)     0.00212       0.53510

  14    O  4  s      Cor( 1s)     1.99994     -19.04828
  15    O  4  s      Val( 2s)     1.76022      -0.71076
  16    O  4  s      Ryd( 3s)     0.00154       1.65671
  17    O  4  px     Val( 2p)     1.60157      -0.23617
  18    O  4  px     Ryd( 3p)     0.00145       1.08352
  19    O  4  py     Val( 2p)     1.58339      -0.23432
  20    O  4  py     Ryd( 3p)     0.00190       1.13242
  21    O  4  pz     Val( 2p)     1.99894      -0.25482
  22    O  4  pz     Ryd( 3p)     0.00093       0.98586

  23    H  5  s      Val( 1s)     0.54815       0.16792
  24    H  5  s      Ryd( 2s)     0.00212       0.59231

  25    H  6  s      Val( 1s)     0.52218       0.20639
  26    H  6  s      Ryd( 2s)     0.00335       0.68798


 Summary of Natural Population Analysis:

                                     Natural Population
             Natural    ---------------------------------------------
  Atom No    Charge        Core      Valence    Rydberg      Total
 --------------------------------------------------------------------
    O  1   -0.92771      1.99994     6.92197    0.00581     8.92771
    H  2    0.47669      0.00000     0.52119    0.00212     0.52331
    H  3    0.47669      0.00000     0.52119    0.00212     0.52331
    O  4   -0.94986      1.99994     6.94411    0.00581     8.94986
    H  5    0.44973      0.00000     0.54815    0.00212     0.55027
    H  6    0.47447      0.00000     0.52218    0.00335     0.52553
 ====================================================================
 * Total *  0.00000      3.99988    15.97879    0.02134    20.00000

                                 Natural Population
 ---------------------------------------------------------
   Core                       3.99988 ( 99.9969% of    4)
   Valence                   15.97879 ( 99.8674% of   16)
   Natural Minimal Basis     19.97866 ( 99.8933% of   20)
   Natural Rydberg Basis      0.02134 (  0.1067% of   20)
 ---------------------------------------------------------

    Atom No         Natural Electron Configuration
 ----------------------------------------------------------------------------
      O  1      [core]2s( 1.77)2p( 5.15)
      H  2            1s( 0.52)
      H  3            1s( 0.52)
      O  4      [core]2s( 1.76)2p( 5.18)
      H  5            1s( 0.55)
      H  6            1s( 0.52)


 NATURAL BOND ORBITAL ANALYSIS:

 User-requested molecular units:
   1. <O1,H2,H3>
   2. <O4,H5,H6>

                            Occupancies       Lewis Structure    Low   High
         Max    Occ     -------------------  -----------------   occ   occ
  Cycle  Ctr   Thresh    Lewis   non-Lewis     CR  BD  nC  LP    (L)   (NL)
 ============================================================================
    1     2     1.90    19.96476   0.03524      2   4   0   4     0      0
    2     2     1.50    19.43629   0.56371      2   3   0   5     0      1
    3     2     1.90    19.96476   0.03524      2   4   0   4     0      0
 ----------------------------------------------------------------------------

 Structure accepted: No low occupancy Lewis orbitals

 -------------------------------------------------------
   Core                      3.99988 ( 99.997% of   4)
   Valence Lewis            15.96489 ( 99.781% of  16)
  ==================      =============================
   Total Lewis              19.96476 ( 99.824% of  20)
  -----------------------------------------------------
   Valence non-Lewis         0.02498 (  0.125% of  20)
   Rydberg non-Lewis         0.01026 (  0.051% of  20)
  ==================      =============================
   Total non-Lewis           0.03524 (  0.176% of  20)
 -------------------------------------------------------


     (Occupancy)   Bond orbital / Coefficients / Hybrids
 ------------------ Lewis ------------------------------------------------------
   1. (1.99994) CR ( 1) O  1            s(100.00%)
                                         1.0000  0.0000  0.0000  0.0000  0.0000
                                         0.0000  0.0000  0.0000  0.0000
   2. (1.99994) CR ( 1) O  4            s(100.00%)
                                         1.0000  0.0000  0.0000  0.0000  0.0000
                                         0.0000  0.0000  0.0000  0.0000
   3. (1.99848) LP ( 1) O  1            s( 29.46%)p 2.39( 70.54%)
                                         0.0000  0.5427 -0.0111 -0.7671  0.0154
                                        -0.3415  0.0062  0.0000  0.0000
   4. (1.97318) LP ( 2) O  1            s( 25.89%)p 2.86( 74.11%)
                                         0.0000  0.5086 -0.0134 -0.0231  0.0021
                                         0.8603 -0.0212  0.0000  0.0000
   5. (1.99986) LP ( 1) O  4            s(  0.00%)p 1.00(100.00%)
                                         0.0000  0.0000  0.0000  0.0000  0.0000
                                         0.0000  0.0000  0.9998 -0.0216
   6. (1.99818) LP ( 2) O  4            s( 52.89%)p 0.89( 47.11%)
                                         0.0000  0.7271 -0.0159  0.5282 -0.0138
                                         0.4380 -0.0077  0.0000  0.0000
   7. (1.99862) BD ( 1) O  1- H  2
               ( 73.94%)   0.8599* O  1 s( 22.36%)p 3.47( 77.64%)
                                         0.0000  0.4726  0.0180  0.4529  0.0008
                                        -0.2669 -0.0013  0.7065  0.0299
               ( 26.06%)   0.5105* H  2 s(100.00%)
                                         1.0000 -0.0016
   8. (1.99862) BD ( 1) O  1- H  3
               ( 73.94%)   0.8599* O  1 s( 22.36%)p 3.47( 77.64%)
                                         0.0000  0.4726  0.0180  0.4529  0.0008
                                        -0.2669 -0.0013 -0.7065 -0.0299
               ( 26.06%)   0.5105* H  3 s(100.00%)
                                         1.0000 -0.0016
   9. (1.99938) BD ( 1) O  4- H  5
               ( 72.60%)   0.8521* O  4 s( 21.44%)p 3.66( 78.56%)
                                         0.0000  0.4626  0.0193 -0.8481 -0.0219
                                         0.2552  0.0272  0.0000  0.0000
               ( 27.40%)   0.5234* H  5 s(100.00%)
                                         1.0000 -0.0014
  10. (1.99855) BD ( 1) O  4- H  6
               ( 74.75%)   0.8646* O  4 s( 25.73%)p 2.89( 74.27%)
                                         0.0000  0.5071  0.0138  0.0166  0.0155
                                        -0.8612 -0.0214  0.0000  0.0000
               ( 25.25%)   0.5025* H  6 s(100.00%)
                                         0.9999 -0.0133
 ---------------- non-Lewis ----------------------------------------------------
  11. (0.00054) BD*( 1) O  1- H  2
               ( 26.06%)   0.5105* O  1 s( 22.36%)p 3.47( 77.64%)
                                         0.0000 -0.4726 -0.0180 -0.4529 -0.0008
                                         0.2669  0.0013 -0.7065 -0.0299
               ( 73.94%)  -0.8599* H  2 s(100.00%)
                                        -1.0000  0.0016
  12. (0.00054) BD*( 1) O  1- H  3
               ( 26.06%)   0.5105* O  1 s( 22.36%)p 3.47( 77.64%)
                                         0.0000 -0.4726 -0.0180 -0.4529 -0.0008
                                         0.2669  0.0013  0.7065  0.0299
               ( 73.94%)  -0.8599* H  3 s(100.00%)
                                        -1.0000  0.0016
  13. (0.00049) BD*( 1) O  4- H  5
               ( 27.40%)   0.5234* O  4 s( 21.44%)p 3.66( 78.56%)
                                         0.0000 -0.4626 -0.0193  0.8481  0.0219
                                        -0.2552 -0.0272  0.0000  0.0000
               ( 72.60%)  -0.8521* H  5 s(100.00%)
                                        -1.0000  0.0014
  14. (0.02341) BD*( 1) O  4- H  6
               ( 25.25%)   0.5025* O  4 s( 25.73%)p 2.89( 74.27%)
                                         0.0000 -0.5071 -0.0138 -0.0166 -0.0155
                                         0.8612  0.0214  0.0000  0.0000
               ( 74.75%)  -0.8646* H  6 s(100.00%)
                                        -0.9999  0.0133
  15. (0.00009) RY ( 1) O  1            s(  2.32%)p42.16( 97.68%)
  16. (0.00004) RY ( 2) O  1            s( 78.76%)p 0.27( 21.24%)
  17. (0.00003) RY ( 3) O  1            s(  0.00%)p 1.00(100.00%)
  18. (0.00000) RY ( 4) O  1            s( 18.85%)p 4.30( 81.15%)
  19. (0.00213) RY ( 1) H  2            s(100.00%)
                                         0.0016  1.0000
  20. (0.00213) RY ( 1) H  3            s(100.00%)
                                         0.0016  1.0000
  21. (0.00023) RY ( 1) O  4            s( 98.11%)p 0.02(  1.89%)
                                         0.0000 -0.0042  0.9905  0.0203  0.0484
                                         0.0178 -0.1259  0.0000  0.0000
  22. (0.00003) RY ( 2) O  4            s(  1.79%)p54.73( 98.21%)
  23. (0.00002) RY ( 3) O  4            s(  0.03%)p99.99( 99.97%)
  24. (0.00000) RY ( 4) O  4            s(  0.00%)p 1.00(100.00%)
  25. (0.00212) RY ( 1) H  5            s(100.00%)
                                         0.0014  1.0000
  26. (0.00345) RY ( 1) H  6            s(100.00%)
                                         0.0133  0.9999


 NHO DIRECTIONALITY AND BOND BENDING (deviation from line of nuclear centers at
                                      the position of maximum hybrid amplitude)

         [Thresholds for printing:  angular deviation  >  1.0 degree]
                                    p- or d-character  > 25.0%
                                    orbital occupancy  >  0.10e

                        Line of Centers        Hybrid 1             Hybrid 2
                        ---------------  -------------------  ------------------
           NBO            Theta   Phi    Theta   Phi    Dev   Theta   Phi    Dev
 ===============================================================================
   3. LP ( 1) O  1          --     --     90.0  205.7   --      --     --    --
   5. LP ( 1) O  4          --     --    180.0    0.0   --      --     --    --
   6. LP ( 2) O  4          --     --     90.0   40.0   --      --     --    --
   7. BD ( 1) O  1- H  2   37.4  330.0    36.5  329.4   1.0     --     --    --
   8. BD ( 1) O  1- H  3  142.6  330.0   143.5  329.4   1.0     --     --    --
   9. BD ( 1) O  4- H  5   90.0  164.8    90.0  162.8   2.0     --     --    --
  10. BD ( 1) O  4- H  6   90.0  270.0    90.0  271.2   1.2     --     --    --


 SECOND ORDER PERTURBATION THEORY ANALYSIS OF FOCK MATRIX IN NBO BASIS

     Threshold for printing:   0.50 kcal/mol
    (Intermolecular threshold: 0.05 kcal/mol)
                                                          E(2) E(NL)-E(L) F(L,NL)
      Donor (L) NBO              Acceptor (NL) NBO      kcal/mol   a.u.    a.u.
 ===============================================================================

 within unit  1
    3. LP ( 1) O  1            19. RY ( 1) H  2            0.72    0.97   0.024
    3. LP ( 1) O  1            20. RY ( 1) H  3            0.72    0.97   0.024
    4. LP ( 2) O  1            19. RY ( 1) H  2            0.76    0.97   0.024
    4. LP ( 2) O  1            20. RY ( 1) H  3            0.76    0.97   0.024
    7. BD ( 1) O  1- H  2      20. RY ( 1) H  3            0.57    1.26   0.024
    8. BD ( 1) O  1- H  3      19. RY ( 1) H  2            0.57    1.26   0.024

 from unit  1 to unit  2
    4. LP ( 2) O  1            14. BD*( 1) O  4- H  6     10.07    0.95   0.087
    7. BD ( 1) O  1- H  2      14. BD*( 1) O  4- H  6      0.08    1.24   0.009
    7. BD ( 1) O  1- H  2      26. RY ( 1) H  6            0.10    1.41   0.011
    8. BD ( 1) O  1- H  3      14. BD*( 1) O  4- H  6      0.08    1.24   0.009
    8. BD ( 1) O  1- H  3      26. RY ( 1) H  6            0.10    1.41   0.011

 from unit  2 to unit  1
       None above threshold

 within unit  2
    6. LP ( 2) O  4            25. RY ( 1) H  5            1.12    1.06   0.031
   10. BD ( 1) O  4- H  6      25. RY ( 1) H  5            0.70    1.26   0.027


 NATURAL BOND ORBITALS (Summary):

                                                     Principal Delocalizations
           NBO                 Occupancy    Energy   (geminal,vicinal,remote)
 ===============================================================================
 Molecular unit  1  (H2O)
 ------ Lewis --------------------------------------
    1. CR ( 1) O  1             1.99994   -19.12569
    3. LP ( 1) O  1             1.99848    -0.43965  19(v),20(v)
    4. LP ( 2) O  1             1.97318    -0.43256  14(r),19(v),20(v)
    7. BD ( 1) O  1- H  2       1.99862    -0.72602  20(v),26(r),14(r)
    8. BD ( 1) O  1- H  3       1.99862    -0.72602  19(v),26(r),14(r)
 ------ non-Lewis ----------------------------------
   11. BD*( 1) O  1- H  2       0.00054     0.43100
   12. BD*( 1) O  1- H  3       0.00054     0.43100
   15. RY ( 1) O  1             0.00009     1.08534
   16. RY ( 2) O  1             0.00004     1.44251
   17. RY ( 3) O  1             0.00003     1.06943
   18. RY ( 4) O  1             0.00000     1.01770
   19. RY ( 1) H  2             0.00213     0.53409
   20. RY ( 1) H  3             0.00213     0.53409
          -------------------------------
                 Total Lewis    9.96884  ( 99.9449%)
           Valence non-Lewis    0.00108  (  0.0109%)
           Rydberg non-Lewis    0.00441  (  0.0442%)
          -------------------------------
               Total unit  1    9.97434  (100.0000%)
              Charge unit  1    0.02566

 Molecular unit  2  (H2O)
 ------ Lewis --------------------------------------
    2. CR ( 1) O  4             1.99994   -19.04828
    5. LP ( 1) O  4             1.99986    -0.25539
    6. LP ( 2) O  4             1.99818    -0.46358  25(v)
    9. BD ( 1) O  4- H  5       1.99938    -0.65406
   10. BD ( 1) O  4- H  6       1.99855    -0.67007  25(v)
 ------ non-Lewis ----------------------------------
   13. BD*( 1) O  4- H  5       0.00049     0.47821
   14. BD*( 1) O  4- H  6       0.02341     0.51450
   21. RY ( 1) O  4             0.00023     1.66644
   22. RY ( 2) O  4             0.00003     1.16032
   23. RY ( 3) O  4             0.00002     1.04289
   24. RY ( 4) O  4             0.00000     0.98643
   25. RY ( 1) H  5             0.00212     0.59145
   26. RY ( 1) H  6             0.00345     0.67991
          -------------------------------
                 Total Lewis    9.99592  ( 99.7034%)
           Valence non-Lewis    0.02390  (  0.2384%)
           Rydberg non-Lewis    0.00584  (  0.0583%)
          -------------------------------
               Total unit  2   10.02566  (100.0000%)
              Charge unit  2   -0.02566

 $CHOOSE
   LONE 1 2 4 2 END
   BOND S 1 2 S 1 3 S 4 5 S 4 6 END
 $END

 NBO analysis completed in 0.05 CPU seconds (0 wall seconds)
 Maximum scratch memory used by NBO was 238842 words (1.82 MB)
 Maximum scratch memory used by G16NBO was 9311 words (0.07 MB)


 NEDA: Natural Energy Decomposition Analysis
 Deletion of the NAO Fock matrix elements between orbitals:
    1   2   3   4   5   6   7   8   9  10  11  12  13
 and orbitals:
   14  15  16  17  18  19  20  21  22  23  24  25  26

 Orbital occupancies:

       Orbital                         No deletions  This deletion    Change
 ------------------------------------------------------------------------------
    1.  O 1( 1s )                        1.99994        1.99995       0.00001
    2.  O 1( 2s )                        1.76730        1.77410       0.00680
    3.  O 1( 3s )                        0.00160        0.00153      -0.00008
    4.  O 1( 2px)                        1.79092        1.79106       0.00014
    5.  O 1( 3px)                        0.00050        0.00048      -0.00002
    6.  O 1( 2py)                        1.90679        1.92322       0.01642
    7.  O 1( 3py)                        0.00105        0.00059      -0.00047
    8.  O 1( 2pz)                        1.45696        1.45694      -0.00002
    9.  O 1( 3pz)                        0.00264        0.00262      -0.00003
   10.  H 2( 1s )                        0.52119        0.52257       0.00138
   11.  H 2( 2s )                        0.00212        0.00219       0.00006
   12.  H 3( 1s )                        0.52119        0.52257       0.00138
   13.  H 3( 2s )                        0.00212        0.00219       0.00006
   14.  O 4( 1s )                        1.99994        1.99994       0.00000
   15.  O 4( 2s )                        1.76022        1.75847      -0.00174
   16.  O 4( 3s )                        0.00154        0.00133      -0.00021
   17.  O 4( 2px)                        1.60157        1.60142      -0.00015
   18.  O 4( 3px)                        0.00145        0.00143      -0.00002
   19.  O 4( 2py)                        1.58339        1.57603      -0.00735
   20.  O 4( 3py)                        0.00190        0.00187      -0.00002
   21.  O 4( 2pz)                        1.99894        1.99908       0.00015
   22.  O 4( 3pz)                        0.00093        0.00092      -0.00001
   23.  H 5( 1s )                        0.54815        0.54748      -0.00067
   24.  H 5( 2s )                        0.00212        0.00206      -0.00006
   25.  H 6( 1s )                        0.52218        0.50922      -0.01295
   26.  H 6( 2s )                        0.00335        0.00073      -0.00262

 NEXT STEP:  Perform one SCF cycle to evaluate the energy of the new density
             matrix constructed from the deleted NAO Fock matrix.

 ------------------------------------------------------------------------------
 Opening RunExU unformatted file "/scr/ericg/dimer/Gau-15099.EUF"
 Read unf file /scr/ericg/dimer/Gau-15099.EUF:
 Label Gaussian matrix elements                                         IVers= 2 NLab= 2 Version=ES64L-G16RevC.01
 Title Water dimer...b3lyp/4-31g//Umeyama, Morokuma, JACS 99, 1316 (197
 NAtoms=     6 NBasis=    26 NBsUse=    26 ICharg=     0 Multip=     1 NE=    20 Len12L=8 Len4L=8 IOpCl= 0 ICGU=111
 GAUSSIAN SCALARS                    NI= 1 NR= 1 NTot=       1 LenBuf=    2 NRI=1 N=    1000
 ALPHA DENSITY MATRIX                NI= 0 NR= 1 NTot=     351 LenBuf= 4000 NRI=1 N=     -26      26
 Store file  10528 Len=     351.
 ALPHA MO COEFFICIENTS               NI= 0 NR= 1 NTot=     676 LenBuf= 4000 NRI=1 N=      26      26
 Store file  10524 Len=     676.
 NPA CHARGES                         NI= 0 NR= 1 NTot=       6 LenBuf= 4000 NRI=1 N=       6
 Recovered energy= -152.628525620     dipole=      0.109358690198     -1.328439578095     -0.000000000000
 Keep R1 ints in memory in symmetry-blocked form, NReq=3517173.
 Requested convergence on RMS density matrix=1.00D-08 within   1 cycles.
 Requested convergence on MAX density matrix=1.00D-06.
 Requested convergence on             energy=1.00D-06.
 No special actions if energy rises.
 >>>>>>>>>> Convergence criterion not met.
 SCF Done:  E(RB3LYP) =  -152.609402907     A.U. after    2 cycles
            NFock=  1  Conv=0.86D-02     -V/T= 2.0056
 LocMO: Using population method
 Initial Trace= 0.10000000D+02 Initial TraceA= 0.72825735D+01
 RMSG= 0.16548648D-08
 OPopF ISpin=          1
                 1             2 
      1   0.100000D+01  0.000000D+00
      2   0.102729D-04  0.999990D+00
      3   0.100002D+01 -0.160999D-04
      4   0.176520D-03  0.999823D+00
      5   0.100002D+01 -0.161000D-04
      6  -0.129697D-03  0.100013D+01
      7   0.991336D+00  0.866401D-02
      8   0.372611D-04  0.999963D+00
      9   0.980454D+00  0.195460D-01
     10   0.139352D-03  0.999861D+00
 MOUse ISpin=          1
              1
     1            1
     2            2
     3            1
     4            2
     5            1
     6            2
     7            1
     8            2
     9            1
    10            2
 IndI ISpin=          1
              1
     1            1
     2            3
     3            5
     4            7
     5            9
     6            2
     7            4
     8            6
     9            8
    10           10
 Running external command "gaunbo7 R"
         input file       "/scr/ericg/dimer/Gau-15099.EIn"
         output file      "/scr/ericg/dimer/Gau-15099.EOu"
         message file     "/scr/ericg/dimer/Gau-15099.EMs"
         fchk file        "/scr/ericg/dimer/Gau-15099.EFC"
         mat. el file     "/scr/ericg/dimer/Gau-15099.EUF"

 Writing WrtUnf unformatted file "/scr/ericg/dimer/Gau-15099.EUF"
 Gaussian matrix elements                                         Version   2 NLab=11 Len12L=8 Len4L=8
 Write SHELL TO ATOM MAP                   from file      0 offset           0 length                  14 to matrix element file.
 Write SHELL TYPES                         from file      0 offset           0 length                  14 to matrix element file.
 Write NUMBER OF PRIMITIVES PER SHELL      from file      0 offset           0 length                  14 to matrix element file.
 Write PRIMITIVE EXPONENTS                 from file      0 offset           0 length                  32 to matrix element file.
 Write CONTRACTION COEFFICIENTS            from file      0 offset           0 length                  32 to matrix element file.
 Write P(S=P) CONTRACTION COEFFICIENTS     from file      0 offset           0 length                  32 to matrix element file.
 Write COORDINATES OF EACH SHELL           from file      0 offset           0 length                  42 to matrix element file.
 Write BONDS PER ATOM                      from file      0 offset           0 length                   6 to matrix element file.
 Write BONDED ATOMS                        from file      0 offset           0 length                   8 to matrix element file.
 Write BOND TYPES                          from file      0 offset           0 length                   8 to matrix element file.
 Write ONIOM CHARGE/MULT                   from file      0 offset           0 length                  32 to matrix element file.
 Write ONIOM ATOM LAYERS                   from file      0 offset           0 length                   6 to matrix element file.
 Write ONIOM ATOM MODIFIERS                from file      0 offset           0 length                   6 to matrix element file.
 Write ONIOM ATOM TYPES                    from file      0 offset           0 length                   6 to matrix element file.
 Write ONIOM LINK ATOMS                    from file      0 offset           0 length                   6 to matrix element file.
 Write ONIOM LINK CHARGES                  from file      0 offset           0 length                   6 to matrix element file.
 Write ONIOM LINK DISTANCES                from file      0 offset           0 length                  24 to matrix element file.
 Write SYMINF INTS                         from file      0 offset           0 length                  26 to matrix element file.
 Write ROTTR TO SO                         from file      0 offset           0 length                  12 to matrix element file.
 Write GAUSSIAN SCALARS                    from file    501 offset           0 to matrix element file.
 Write OPTIMIZATION FLAGS                  from file      0 offset           0 length                   6 to matrix element file.
 Write INTEGER ISO                         from file      0 offset           0 length                   6 to matrix element file.
 Write INTEGER FRAGMENT                    from file      0 offset           0 length                   6 to matrix element file.
 Write INTEGER SPIN                        from file      0 offset           0 length                   6 to matrix element file.
 Write REAL ZEFFECTIVE                     from file      0 offset           0 length                   6 to matrix element file.
 Write REAL GFACTOR                        from file      0 offset           0 length                   6 to matrix element file.
 Write REAL ZNUCLEAR                       from file      0 offset           0 length                   6 to matrix element file.
 Write MULLIKEN CHARGES                    from file      0 offset           0 length                   6 to matrix element file.
 Write NUCLEAR GRADIENT                    from file  10584 offset           0 length                  18 to matrix element file.
 Array NUCLEAR FORCE CONSTANTS              on  file  10585 does not exist.
 Write ELECTRIC DIPOLE MOMENT              from file      0 offset           0 length                   3 to matrix element file.
 Write NON-ADIABATIC COUPLING              from file  10810 offset           0 length                  18 to matrix element file.
 Write ELECTRONS PER FRAGMENT              from file      0 offset           0 length                   8 to matrix element file.
 Write BASIS FUNCTIONS PER FRAGMENT        from file      0 offset           0 length                  96 to matrix element file.
 Write FINITE EM FIELD                     from file  10521 offset           0 length                  35 to matrix element file.
 Write OVERLAP                             from file  10514 offset           0 length                 351 to matrix element file.
 Write CORE HAMILTONIAN ALPHA              from file  10515 offset           0 length                 351 to matrix element file.
 Write CORE HAMILTONIAN BETA               from file  10515 offset         351 length                 351 to matrix element file.
 Write KINETIC ENERGY                      from file  10516 offset           0 length                 351 to matrix element file.
 Write ORTHOGONAL BASIS                    from file  10685 offset           0 length                 676 to matrix element file.
 Write DIPOLE INTEGRALS                    from file  10518 offset           0 length                1053 to matrix element file.
 Array DIP VEL INTEGRALS                    on  file  10572 does not exist.
 Array R X DEL INTEGRALS                    on  file  10572 does not exist.
 Write ALPHA ORBITAL ENERGIES              from file      0 offset           0 length                  26 to matrix element file.
 Write ALPHA MO COEFFICIENTS               from file  10524 offset           0 length                 676 to matrix element file.
 Write ALPHA DENSITY MATRIX                from file      0 offset           0 length                 351 to matrix element file.
 Write ALPHA FOCK MATRIX                   from file  10536 offset           0 length                 351 to matrix element file.
 Write ENERGY-WEIGHTED DENSITY             from file  10571 offset           0 length                 351 to matrix element file.
 Write FRAGMENT DENSITY MATRICES           from file  10774 offset           0 length                 702 to matrix element file.
 Write ALPHA SCF DENSITY MATRIX            from file      0 offset           0 length                 351 to matrix element file.
 Write INTEGER PARAMETERS                  from file      0 offset           0 length                   2 to matrix element file.
 No 2e integrals to process.
 Perform NBO analysis...executing G16NBO...

 ------------------------------------------------------------------------------
   Energy of deletion :       -152.609402907
     Total SCF energy :       -152.628525620
                          -------------------
        Energy change :          0.019123 a.u.,          12.000 kcal/mol
 ------------------------------------------------------------------------------
 Opening RunExU unformatted file "/scr/ericg/dimer/Gau-15099.EUF"
 Read unf file /scr/ericg/dimer/Gau-15099.EUF:
 Label Gaussian matrix elements                                         IVers= 2 NLab= 2 Version=ES64L-G16RevC.01
 Title Water dimer...b3lyp/4-31g//Umeyama, Morokuma, JACS 99, 1316 (197
 NAtoms=     6 NBasis=    26 NBsUse=    26 ICharg=     0 Multip=     1 NE=    20 Len12L=8 Len4L=8 IOpCl= 0 ICGU=111
 GAUSSIAN SCALARS                    NI= 1 NR= 1 NTot=       1 LenBuf=    2 NRI=1 N=    1000
 FRAGMENT DENSITY MATRICES           NI= 0 NR= 1 NTot=     702 LenBuf= 4000 NRI=1 N=     -26      26       1       2
 Store file  10774 Len=     702.
 Recovered energy= -152.609402907     dipole=      0.109358690198     -1.328439578095     -0.000000000000
 CPIOFr:  IOpCl= 0 IRwI=-1 IRwCP=  731 ICalc= -1 LCPTot=        2358 Len1MO=        3940 IndFrg=        2358
 CPIOFr:  IOpCl= 0 IRwI=-1 IRwCP=  731 ICalc=  0 LCPTot=        2358 Len1MO=        3940 IndFrg=        6298
 NEDA: doing calculation for fragment   1 using the basis set of the full-system, NewBq=T
 Basis read from rwf:  (6D, 7F)
 There are    20 symmetry adapted cartesian basis functions of A'  symmetry.
 There are     6 symmetry adapted cartesian basis functions of A"  symmetry.
 There are    20 symmetry adapted basis functions of A'  symmetry.
 There are     6 symmetry adapted basis functions of A"  symmetry.
    26 basis functions,    56 primitive gaussians,    26 cartesian basis functions
     5 alpha electrons        5 beta electrons
       nuclear repulsion energy         9.2049135193 Hartrees.
 NAtoms=    6 NActive=    6 NUniq=    5 SFac= 1.44D+00 NAtFMM=   60 NAOKFM=F Big=F
 Integral buffers will be    131072 words long.
 Raffenetti 2 integral format.
 Two-electron integral symmetry is turned on.
 One-electron integrals computed using PRISM.
 NBasis=    26 RedAO= T EigKep=  5.38D-02  NBF=    20     6
 NBsUse=    26 1.00D-06 EigRej= -1.00D+00 NBFU=    20     6
 Initial guess from the read-write file.
 Symmetry OAOs for initial guess.
 Keep R1 ints in memory in symmetry-blocked form, NReq=3517230.
 Requested convergence on RMS density matrix=1.00D-08 within 128 cycles.
 Requested convergence on MAX density matrix=1.00D-06.
 Requested convergence on             energy=1.00D-06.
 No special actions if energy rises.
 NEDASv:  IAct=1 IFrag=     1 NFrag=     2 L1Frag=        2473 IndFrg=           0.
 FoFJK:  IHMeth= 1 ICntrl=     200 DoSepK=F KAlg= 0 I1Cent=           0 FoldK=F
 IRaf=         0 NMat=       1 IRICut=       1 DoRegI=T DoRafI=F ISym2E= 0 IDoP0=0 IntGTp=1.
          EJ=  47.1727530646803    
 NEDASv:  IAct=2 IFrag=     1 NFrag=     2 L1Frag=        2473 IndFrg=           0.
          EJ=  46.8308932398193    
 SCF Done:  E(RB3LYP) =  -76.3099263916     A.U. after    8 cycles
            NFock=  8  Conv=0.17D-08     -V/T= 2.0040
 CPIOFr:  IOpCl= 0 IRwI=-1 IRwCP=  731 ICalc=  1 LCPTot=        2358 Len1MO=        3940 IndFrg=       10238
 NEDA: doing calculation for fragment   2 using the basis set of the full-system, NewBq=T
 Basis read from rwf:  (6D, 7F)
 There are    20 symmetry adapted cartesian basis functions of A'  symmetry.
 There are     6 symmetry adapted cartesian basis functions of A"  symmetry.
 There are    20 symmetry adapted basis functions of A'  symmetry.
 There are     6 symmetry adapted basis functions of A"  symmetry.
    26 basis functions,    56 primitive gaussians,    26 cartesian basis functions
     5 alpha electrons        5 beta electrons
       nuclear repulsion energy         9.2049113590 Hartrees.
 NAtoms=    6 NActive=    6 NUniq=    5 SFac= 1.44D+00 NAtFMM=   60 NAOKFM=F Big=F
 Integral buffers will be    131072 words long.
 Raffenetti 2 integral format.
 Two-electron integral symmetry is turned on.
 One-electron integrals computed using PRISM.
 NBasis=    26 RedAO= T EigKep=  5.38D-02  NBF=    20     6
 NBsUse=    26 1.00D-06 EigRej= -1.00D+00 NBFU=    20     6
 Initial guess from the read-write file.
 Symmetry OAOs for initial guess.
 Keep R1 ints in memory in symmetry-blocked form, NReq=3517230.
 Requested convergence on RMS density matrix=1.00D-08 within 128 cycles.
 Requested convergence on MAX density matrix=1.00D-06.
 Requested convergence on             energy=1.00D-06.
 No special actions if energy rises.
 NEDASv:  IAct=1 IFrag=     2 NFrag=     2 L1Frag=        2473 IndFrg=        2473.
 FoFJK:  IHMeth= 1 ICntrl=     200 DoSepK=F KAlg= 0 I1Cent=           0 FoldK=F
 IRaf=         0 NMat=       1 IRICut=       1 DoRegI=T DoRafI=F ISym2E= 0 IDoP0=0 IntGTp=1.
          EJ=  46.9243316182299    
 NEDASv:  IAct=2 IFrag=     2 NFrag=     2 L1Frag=        2473 IndFrg=        2473.
          EJ=  46.8895894557773    
 SCF Done:  E(RB3LYP) =  -76.3075355071     A.U. after    8 cycles
            NFock=  8  Conv=0.15D-08     -V/T= 2.0038
 CPIOFr:  IOpCl= 0 IRwI=-1 IRwCP=  731 ICalc=  2 LCPTot=        2358 Len1MO=        3940 IndFrg=       14178
                          Input orientation:                          
 ---------------------------------------------------------------------
 Center     Atomic      Atomic             Coordinates (Angstroms)
 Number     Number       Type             X           Y           Z
 ---------------------------------------------------------------------
      1          8           0       -0.004158   -1.425700   -0.000000
      2          1           0        0.498701   -1.716026    0.759460
      3          1           0        0.498701   -1.716026   -0.759460
      4          8           0       -0.004158    1.554300    0.000000
      5          1           0       -0.926714    1.804953    0.000000
      6          1           0       -0.004158    0.598300    0.000000
 ---------------------------------------------------------------------
                    Distance matrix (angstroms):
                    1          2          3          4          5
     1  O    0.000000
     2  H    0.956000   0.000000
     3  H    0.956000   1.518920   0.000000
     4  O    2.980000   3.394802   3.394802   0.000000
     5  H    3.359796   3.873742   3.873742   0.956000   0.000000
     6  H    2.024000   2.487117   2.487117   0.956000   1.518921
                    6
     6  H    0.000000
 Stoichiometry    H4O2
 Framework group  CS[SG(H2O2),X(H2)]
 Deg. of freedom     8
 Full point group                 CS      NOp   2
 Largest Abelian subgroup         CS      NOp   2
 Largest concise Abelian subgroup CS      NOp   2
                         Standard orientation:                         
 ---------------------------------------------------------------------
 Center     Atomic      Atomic             Coordinates (Angstroms)
 Number     Number       Type             X           Y           Z
 ---------------------------------------------------------------------
      1          8           0       -0.004158   -1.425700    0.000000
      2          1           0        0.498701   -1.716026    0.759460
      3          1           0        0.498701   -1.716026   -0.759460
      4          8           0       -0.004158    1.554300   -0.000000
      5          1           0       -0.926714    1.804953   -0.000000
      6          1           0       -0.004158    0.598300   -0.000000
 ---------------------------------------------------------------------
 Rotational constants (GHZ):         212.1031352           6.1621506           6.1578308

 **********************************************************************

            Population analysis using the SCF Density.

 **********************************************************************

 Orbital symmetries:
       Occupied  (A') (A') (A') (A') (A") (A') (A') (A') (A") (A')
       Virtual   (A') (A') (A') (A") (A') (A") (A') (A') (A') (A")
                 (A') (A') (A') (A') (A") (A')
 The electronic state is 1-A'.
 Alpha  occ. eigenvalues --  -19.08926  -1.01534  -0.53039  -0.35215  -0.28908
 Alpha  occ. eigenvalues --    0.04167   0.11542   0.22421   0.28235   0.53016
 Alpha virt. eigenvalues --    0.68832   0.81567   0.84777   0.86759   0.90874
 Alpha virt. eigenvalues --    0.95639   1.01743   1.20089   1.65855   2.18159
 Alpha virt. eigenvalues --    2.47733   2.83541   5.35558   5.52961   5.61603
 Alpha virt. eigenvalues --   33.27948
          Condensed to atoms (all electrons):
               1          2          3          4          5          6
     1  O    0.000417   0.000024   0.000024   0.000797   0.000076   0.001878
     2  H    0.000024   0.000197  -0.000017   0.000190   0.000003   0.000444
     3  H    0.000024  -0.000017   0.000197   0.000190   0.000003   0.000444
     4  O    0.000797   0.000190   0.000190   8.215597   0.248552   0.246124
     5  H    0.000076   0.000003   0.000003   0.248552   0.441424  -0.039031
     6  H    0.001878   0.000444   0.000444   0.246124  -0.039031   0.422765
 Mulliken charges:
               1
     1  O    7.996782
     2  H    0.999159
     3  H    0.999159
     4  O   -0.711450
     5  H    0.348972
     6  H    0.367376
 Sum of Mulliken charges =  10.00000
 Mulliken charges with hydrogens summed into heavy atoms:
               1
     1  O    9.995101
     4  O    0.004899
         Mulliken charges condensed to fragments:
      1      9.995101
      2      0.004899
 Electronic spatial extent (au):  <R**2>=            100.9779
 Charge=             10.0000 electrons
 Dipole moment (field-independent basis, Debye):
    X=              2.7007    Y=            -72.7239    Z=             -0.0000  Tot=             72.7741
 Quadrupole moment (field-independent basis, Debye-Ang):
   XX=             -2.6742   YY=             97.0560   ZZ=             -1.5531
   XY=            -11.6001   XZ=             -0.0000   YZ=              0.0000
 Traceless Quadrupole moment (field-independent basis, Debye-Ang):
   XX=            -33.6171   YY=             66.1131   ZZ=            -32.4960
   XY=            -11.6001   XZ=             -0.0000   YZ=              0.0000
 Octapole moment (field-independent basis, Debye-Ang**2):
  XXX=              1.0818  YYY=           -193.2299  ZZZ=             -0.0000  XYY=              7.5106
  XXY=            -11.3587  XXZ=             -0.0000  XZZ=              3.1479  YZZ=            -20.2517
  YYZ=             -0.0000  XYZ=              0.0000
 Hexadecapole moment (field-independent basis, Debye-Ang**3):
 XXXX=             -4.7707 YYYY=            142.3901 ZZZZ=             -1.7810 XXXY=             -2.3861
 XXXZ=             -0.0000 YYYX=            -33.9209 YYYZ=              0.0000 ZZZX=             -0.0000
 ZZZY=              0.0000 XXYY=             -5.4894 XXZZ=             -0.5765 YYZZ=             -1.9692
 XXYZ=              0.0000 YYXZ=             -0.0000 ZZXY=             -4.0752
 N-N= 9.204911359049D+00 E-N=-1.990516167831D+02  KE= 7.601623270186D+01
 Running external command "gaunbo7 R"
         input file       "/scr/ericg/dimer/Gau-15099.EIn"
         output file      "/scr/ericg/dimer/Gau-15099.EOu"
         message file     "/scr/ericg/dimer/Gau-15099.EMs"
         fchk file        "/scr/ericg/dimer/Gau-15099.EFC"
         mat. el file     "/scr/ericg/dimer/Gau-15099.EUF"

 Writing WrtUnf unformatted file "/scr/ericg/dimer/Gau-15099.EUF"
 Gaussian matrix elements                                         Version   2 NLab=11 Len12L=8 Len4L=8
 Write SHELL TO ATOM MAP                   from file      0 offset           0 length                  14 to matrix element file.
 Write SHELL TYPES                         from file      0 offset           0 length                  14 to matrix element file.
 Write NUMBER OF PRIMITIVES PER SHELL      from file      0 offset           0 length                  14 to matrix element file.
 Write PRIMITIVE EXPONENTS                 from file      0 offset           0 length                  32 to matrix element file.
 Write CONTRACTION COEFFICIENTS            from file      0 offset           0 length                  32 to matrix element file.
 Write P(S=P) CONTRACTION COEFFICIENTS     from file      0 offset           0 length                  32 to matrix element file.
 Write COORDINATES OF EACH SHELL           from file      0 offset           0 length                  42 to matrix element file.
 Write BONDS PER ATOM                      from file      0 offset           0 length                   6 to matrix element file.
 Write BONDED ATOMS                        from file      0 offset           0 length                   8 to matrix element file.
 Write BOND TYPES                          from file      0 offset           0 length                   8 to matrix element file.
 Write ONIOM CHARGE/MULT                   from file      0 offset           0 length                  32 to matrix element file.
 Write ONIOM ATOM LAYERS                   from file      0 offset           0 length                   6 to matrix element file.
 Write ONIOM ATOM MODIFIERS                from file      0 offset           0 length                   6 to matrix element file.
 Write ONIOM ATOM TYPES                    from file      0 offset           0 length                   6 to matrix element file.
 Write ONIOM LINK ATOMS                    from file      0 offset           0 length                   6 to matrix element file.
 Write ONIOM LINK CHARGES                  from file      0 offset           0 length                   6 to matrix element file.
 Write ONIOM LINK DISTANCES                from file      0 offset           0 length                  24 to matrix element file.
 Write SYMINF INTS                         from file      0 offset           0 length                  26 to matrix element file.
 Write ROTTR TO SO                         from file      0 offset           0 length                  12 to matrix element file.
 Write GAUSSIAN SCALARS                    from file    501 offset           0 to matrix element file.
 Write OPTIMIZATION FLAGS                  from file      0 offset           0 length                   6 to matrix element file.
 Write INTEGER ISO                         from file      0 offset           0 length                   6 to matrix element file.
 Write INTEGER FRAGMENT                    from file      0 offset           0 length                   6 to matrix element file.
 Write INTEGER SPIN                        from file      0 offset           0 length                   6 to matrix element file.
 Write REAL ZEFFECTIVE                     from file      0 offset           0 length                   6 to matrix element file.
 Write REAL GFACTOR                        from file      0 offset           0 length                   6 to matrix element file.
 Write REAL ZNUCLEAR                       from file      0 offset           0 length                   6 to matrix element file.
 Write MULLIKEN CHARGES                    from file      0 offset           0 length                   6 to matrix element file.
 Write NUCLEAR GRADIENT                    from file  10584 offset           0 length                  18 to matrix element file.
 Array NUCLEAR FORCE CONSTANTS              on  file  10585 does not exist.
 Write ELECTRIC DIPOLE MOMENT              from file      0 offset           0 length                   3 to matrix element file.
 Write NON-ADIABATIC COUPLING              from file  10810 offset           0 length                  18 to matrix element file.
 Write ELECTRONS PER FRAGMENT              from file      0 offset           0 length                   8 to matrix element file.
 Write BASIS FUNCTIONS PER FRAGMENT        from file      0 offset           0 length                  96 to matrix element file.
 Write FINITE EM FIELD                     from file  10521 offset           0 length                  35 to matrix element file.
 Write OVERLAP                             from file  10514 offset           0 length                 351 to matrix element file.
 Write CORE HAMILTONIAN ALPHA              from file  10515 offset           0 length                 351 to matrix element file.
 Write CORE HAMILTONIAN BETA               from file  10515 offset         351 length                 351 to matrix element file.
 Write KINETIC ENERGY                      from file  10516 offset           0 length                 351 to matrix element file.
 Array ORTHOGONAL BASIS                     on  file  10685 does not exist.
 Write DIPOLE INTEGRALS                    from file  10518 offset           0 length                1053 to matrix element file.
 Array DIP VEL INTEGRALS                    on  file  10572 does not exist.
 Array R X DEL INTEGRALS                    on  file  10572 does not exist.
 Write ALPHA ORBITAL ENERGIES              from file      0 offset           0 length                  26 to matrix element file.
 Write ALPHA MO COEFFICIENTS               from file  10524 offset           0 length                 676 to matrix element file.
 Write ALPHA DENSITY MATRIX                from file      0 offset           0 length                 351 to matrix element file.
 Write ALPHA FOCK MATRIX                   from file  10536 offset           0 length                 351 to matrix element file.
 Write ENERGY-WEIGHTED DENSITY             from file  10571 offset           0 length                 351 to matrix element file.
 Write FRAGMENT DENSITY MATRICES           from file  10774 offset           0 length                 702 to matrix element file.
 Write FRAGMENT OPERATOR MATRICES          from file  10823 offset           0 length                4946 to matrix element file.
 Write ALPHA SCF DENSITY MATRIX            from file      0 offset           0 length                 351 to matrix element file.
 Write INTEGER PARAMETERS                  from file      0 offset           0 length                   2 to matrix element file.
 No 2e integrals to process.
 Perform NBO analysis...executing G16NBO...


 Natural Energy Decomposition Analysis (Summary):

                                                            Component
                    Energy(wfn)        Energy(wfn)          (kcal/mol)
 ------------------------------------------------------------------------------
 H4O2           -152.6285256(scf)  -152.6094029(loc)      CT =  -12.000
                                                          ES =  -10.521
                                                         POL =   -2.106
                                                          XC =   -2.289
 1. H2O          -76.2879996(def)   -76.3099264(rel) DEF(SE) =   13.759( -0.336)
 2. H2O          -76.2976334(def)   -76.3075355(rel) DEF(SE) =    6.214(  1.333)
                                                              ---------
                                                           E =   -6.943


 Electrical (ES+POL+SE) :    -11.629
   Charge Transfer (CT) :    -12.000
       Core (XC+DEF-SE) :     16.687
                        ------------
  Total Interaction (E) :     -6.943


 Dipole moments:

   1. H2O
      Dipole (def):    2.1768(x),  -1.1827(y),   0.0000(z);   2.4774(tot) Debye
      Dipole (rel):    2.1088(x),  -1.4065(y),   0.0000(z);   2.5348(tot) Debye
      Dipole (ind):    0.0681(x),   0.2238(y),   0.0000(z);   0.2339(tot) Debye
   2. H2O
      Dipole (def):   -1.9147(x),  -1.7471(y),   0.0000(z);   2.5920(tot) Debye
      Dipole (rel):   -1.9302(x),  -1.4557(y),   0.0000(z);   2.4176(tot) Debye
      Dipole (ind):    0.0156(x),  -0.2914(y),   0.0000(z);   0.2919(tot) Debye

 Opening RunExU unformatted file "/scr/ericg/dimer/Gau-15099.EUF"
 Read unf file /scr/ericg/dimer/Gau-15099.EUF:
 Label Gaussian matrix elements                                         IVers= 2 NLab= 2 Version=ES64L-G16RevC.01
 Title Water dimer...b3lyp/4-31g//Umeyama, Morokuma, JACS 99, 1316 (197
 NAtoms=     6 NBasis=    26 NBsUse=    26 ICharg=     0 Multip=     1 NE=    20 Len12L=8 Len4L=8 IOpCl= 0 ICGU=111
 GAUSSIAN SCALARS                    NI= 1 NR= 1 NTot=       1 LenBuf=    2 NRI=1 N=    1000
 Recovered energy= -76.3075355071     dipole=      1.062554637752    -28.611802403199     -0.000000000000
 Unable to Open any file for archive entry.
 1\1\GINC-NEUTRON\SP\RB3LYP\4-31G\H4O2\ERICG\20-May-2020\0\\# b3lyp/4-3
 1g neda=2\\Water dimer...b3lyp/4-31g//Umeyama, Morokuma, JACS 99, 1316
  (1977)\\0,1\O,0,-0.004158,-1.4257,0.\H,0,0.498701,-1.716026,0.75946\H
 ,0,0.498701,-1.716026,-0.75946\O,0,-0.004158,1.5543,0.\H,0,-0.926714,1
 .804953,0.\H,0,-0.004158,0.5983,0.\\Version=ES64L-G16RevC.01\State=1-A
 '\HF=-76.3075355\RMSD=1.528e-09\Dipole=1.0625546,-28.6118024,0.\Quadru
 pole=-24.9934696,49.1534354,-24.1599658,-8.6243714,0.,0.\PG=CS [SG(H2O
 2),X(H2)]\\@
 The archive entry for this job was punched.


 KEEP CLOSE TO NATURES HEART, YOURSELF;
 AND BREAK CLEAR AWAY, ONCE IN A WHILE, AND
 CLIMB A MOUNTAIN OR SPEND A WEEK IN THE
 WOODS.  WASH YOUR SPIRIT CLEAN...
                                         -- JOHN MUIR
 Job cpu time:       0 days  0 hours  0 minutes 14.8 seconds.
 Elapsed time:       0 days  0 hours  0 minutes  3.9 seconds.
 File lengths (MBytes):  RWF=      6 Int=      0 D2E=      0 Chk=      1 Scr=      1
 Normal termination of Gaussian 16 at Wed May 20 10:15:08 2020.
