 Entering Gaussian System, Link 0=/opt/g16.c01/g16/g16
 Initial command:
 /opt/g16.c01/g16/l1.exe "/scr/ericg/h2ko+/Gau-15290.inp" -scrdir="/scr/ericg/h2ko+/"
 Entering Link 1 = /opt/g16.c01/g16/l1.exe PID=     15292.
  
 Copyright (c) 1988-2019, Gaussian, Inc.  All Rights Reserved.
  
 This is part of the Gaussian(R) 16 program.  It is based on
 the Gaussian(R) 09 system (copyright 2009, Gaussian, Inc.),
 the Gaussian(R) 03 system (copyright 2003, Gaussian, Inc.),
 the Gaussian(R) 98 system (copyright 1998, Gaussian, Inc.),
 the Gaussian(R) 94 system (copyright 1995, Gaussian, Inc.),
 the Gaussian 92(TM) system (copyright 1992, Gaussian, Inc.),
 the Gaussian 90(TM) system (copyright 1990, Gaussian, Inc.),
 the Gaussian 88(TM) system (copyright 1988, Gaussian, Inc.),
 the Gaussian 86(TM) system (copyright 1986, Carnegie Mellon
 University), and the Gaussian 82(TM) system (copyright 1983,
 Carnegie Mellon University). Gaussian is a federally registered
 trademark of Gaussian, Inc.
  
 This software contains proprietary and confidential information,
 including trade secrets, belonging to Gaussian, Inc.
  
 This software is provided under written license and may be
 used, copied, transmitted, or stored only in accord with that
 written license.
  
 The following legend is applicable only to US Government
 contracts under FAR:
  
                    RESTRICTED RIGHTS LEGEND
  
 Use, reproduction and disclosure by the US Government is
 subject to restrictions as set forth in subparagraphs (a)
 and (c) of the Commercial Computer Software - Restricted
 Rights clause in FAR 52.227-19.
  
 Gaussian, Inc.
 340 Quinnipiac St., Bldg. 40, Wallingford CT 06492
  
  
 ---------------------------------------------------------------
 Warning -- This program may not be used in any manner that
 competes with the business of Gaussian, Inc. or will provide
 assistance to any competitor of Gaussian, Inc.  The licensee
 of this program is prohibited from giving any competitor of
 Gaussian, Inc. access to this program.  By using this program,
 the user acknowledges that Gaussian, Inc. is engaged in the
 business of creating and licensing software in the field of
 computational chemistry and represents and warrants to the
 licensee that it is not a competitor of Gaussian, Inc. and that
 it will not use this program in any manner prohibited above.
 ---------------------------------------------------------------
  

 Cite this work as:
 Gaussian 16, Revision C.01,
 M. J. Frisch, G. W. Trucks, H. B. Schlegel, G. E. Scuseria, 
 M. A. Robb, J. R. Cheeseman, G. Scalmani, V. Barone, 
 G. A. Petersson, H. Nakatsuji, X. Li, M. Caricato, A. V. Marenich, 
 J. Bloino, B. G. Janesko, R. Gomperts, B. Mennucci, H. P. Hratchian, 
 J. V. Ortiz, A. F. Izmaylov, J. L. Sonnenberg, D. Williams-Young, 
 F. Ding, F. Lipparini, F. Egidi, J. Goings, B. Peng, A. Petrone, 
 T. Henderson, D. Ranasinghe, V. G. Zakrzewski, J. Gao, N. Rega, 
 G. Zheng, W. Liang, M. Hada, M. Ehara, K. Toyota, R. Fukuda, 
 J. Hasegawa, M. Ishida, T. Nakajima, Y. Honda, O. Kitao, H. Nakai, 
 T. Vreven, K. Throssell, J. A. Montgomery, Jr., J. E. Peralta, 
 F. Ogliaro, M. J. Bearpark, J. J. Heyd, E. N. Brothers, K. N. Kudin, 
 V. N. Staroverov, T. A. Keith, R. Kobayashi, J. Normand, 
 K. Raghavachari, A. P. Rendell, J. C. Burant, S. S. Iyengar, 
 J. Tomasi, M. Cossi, J. M. Millam, M. Klene, C. Adamo, R. Cammi, 
 J. W. Ochterski, R. L. Martin, K. Morokuma, O. Farkas, 
 J. B. Foresman, and D. J. Fox, Gaussian, Inc., Wallingford CT, 2019.
 
 ******************************************
 Gaussian 16:  ES64L-G16RevC.01  3-Jul-2019
                20-May-2020 
 ******************************************
 %nproc=4
 Will use up to    4 processors via shared memory.
 -----------------
 #b3lyp/sdd neda=2
 -----------------
 1/38=1,62=2,160=70,172=1/1;
 2/12=2,17=6,18=5,40=1/2;
 1/38=1,53=2,62=2,63=1,160=70/22;
 3/5=17,6=7,11=2,25=1,30=1,74=-5/1,2,3;
 4//1;
 5/5=2,38=5/2;
 6/7=2,8=2,9=2,10=2,28=1,40=111,113=1,114=1,124=2103/1,12(1);
 99/5=1,9=1/99;
 5/5=2,7=1,13=1,38=1,48=100000/2;
 6/7=2,8=2,9=2,10=2,28=1,40=203,113=1,114=1,124=2103/12(-1);
 1/53=2,62=2,63=1,160=70/22;
 3/5=7,6=11,11=2,25=1,30=1,74=-5,82=7/1,2,3;
 4/5=19/1;
 5/5=2,38=1,48=100000,185=1/2;
 1/53=2,62=2,63=1,160=70/22(-3);
 2//2;
 6/7=2,8=2,9=2,10=2,19=2,28=1,40=301,113=1,114=1,124=2103/1,12;
 99/5=1,9=1/99;
 ---------------------
 K(+)..OH2...b3lyp/sdd
 ---------------------
 Symbolic Z-matrix:
 Charge =  1 Multiplicity = 1 in supermolecule
 Charge =  1 Multiplicity = 1 in fragment      1.
 Charge =  0 Multiplicity = 1 in fragment      2.
 K                     0.        0.        0.93557    
 O                     0.        0.       -1.66366    
 H                     0.        0.79476  -2.23333    
 H                     0.       -0.79476  -2.23333    
 
                          Input orientation:                          
 ---------------------------------------------------------------------
 Center     Atomic      Atomic             Coordinates (Angstroms)
 Number     Number       Type             X           Y           Z
 ---------------------------------------------------------------------
      1         19           0        0.000000    0.000000    0.935574
      2          8           0        0.000000    0.000000   -1.663657
      3          1           0        0.000000    0.794762   -2.233325
      4          1           0        0.000000   -0.794762   -2.233325
 ---------------------------------------------------------------------
                    Distance matrix (angstroms):
                    1          2          3          4
     1  K    0.000000
     2  O    2.599231   0.000000
     3  H    3.267043   0.977839   0.000000
     4  H    3.267043   0.977839   1.589524   0.000000
 Stoichiometry    H2KO(1+)
 Framework group  C2V[C2(OK),SGV(H2)]
 Deg. of freedom     3
 Full point group                 C2V     NOp   4
 Largest Abelian subgroup         C2V     NOp   4
 Largest concise Abelian subgroup C2      NOp   2
                         Standard orientation:                         
 ---------------------------------------------------------------------
 Center     Atomic      Atomic             Coordinates (Angstroms)
 Number     Number       Type             X           Y           Z
 ---------------------------------------------------------------------
      1         19           0        0.000000    0.000000    0.935574
      2          8           0        0.000000   -0.000000   -1.663657
      3          1           0        0.000000    0.794762   -2.233325
      4          1           0       -0.000000   -0.794762   -2.233325
 ---------------------------------------------------------------------
 Rotational constants (GHZ):         396.9427488           5.7476728           5.6656352
 NEDA: doing full-system calculation.
 Standard basis: SDD (6D, 10F)
 There are    17 symmetry adapted cartesian basis functions of A1  symmetry.
 There are     0 symmetry adapted cartesian basis functions of A2  symmetry.
 There are     6 symmetry adapted cartesian basis functions of B1  symmetry.
 There are     8 symmetry adapted cartesian basis functions of B2  symmetry.
 There are    17 symmetry adapted basis functions of A1  symmetry.
 There are     0 symmetry adapted basis functions of A2  symmetry.
 There are     6 symmetry adapted basis functions of B1  symmetry.
 There are     8 symmetry adapted basis functions of B2  symmetry.
    31 basis functions,    57 primitive gaussians,    31 cartesian basis functions
     9 alpha electrons        9 beta electrons
       nuclear repulsion energy        26.5656531907 Hartrees.
 NAtoms=    4 NActive=    4 NUniq=    3 SFac= 1.78D+00 NAtFMM=   60 NAOKFM=F Big=F
 Integral buffers will be    131072 words long.
 Raffenetti 2 integral format.
 Two-electron integral symmetry is turned on.
 One-electron integrals computed using PRISM.
   4 Symmetry operations used in ECPInt.
 ECPInt:  NShTT=     190 NPrTT=     663 LenC2=     191 LenP2D=     618.
 LDataN:  DoStor=T MaxTD1= 5 Len=  102
 NBasis=    31 RedAO= T EigKep=  4.27D-02  NBF=    17     0     6     8
 NBsUse=    31 1.00D-06 EigRej= -1.00D+00 NBFU=    17     0     6     8
 ExpMin= 1.65D-02 ExpMax= 7.82D+03 ExpMxC= 1.18D+03 IAcc=3 IRadAn=         5 AccDes= 0.00D+00
 Harris functional with IExCor=  402 and IRadAn=       5 diagonalized for initial guess.
 HarFok:  IExCor=  402 AccDes= 0.00D+00 IRadAn=         5 IDoV= 1 UseB2=F ITyADJ=14
 ICtDFT=  3500011 ScaDFX=  1.000000  1.000000  1.000000  1.000000
 FoFCou: FMM=F IPFlag=           0 FMFlag=      100000 FMFlg1=           0
         NFxFlg=           0 DoJE=T BraDBF=F KetDBF=T FulRan=T
         wScrn=  0.000000 ICntrl=       500 IOpCl=  0 I1Cent=   200000004 NGrid=           0
         NMat0=    1 NMatS0=      1 NMatT0=    0 NMatD0=    1 NMtDS0=    0 NMtDT0=    0
 Petite list used in FoFCou.
 Initial guess orbital symmetries:
       Occupied  (A1) (A1) (A1) (A1) (B2) (B1) (B2) (A1) (B1)
       Virtual   (A1) (A1) (B2) (B1) (A1) (B2) (A1) (B1) (B2) (A1)
                 (B1) (A1) (B2) (A1) (B2) (A1) (A1) (B1) (B2) (A1)
                 (A1) (A1)
 The electronic state of the initial guess is 1-A1.
 Keep R1 ints in memory in symmetry-blocked form, NReq=3581134.
 Requested convergence on RMS density matrix=1.00D-08 within 128 cycles.
 Requested convergence on MAX density matrix=1.00D-06.
 Requested convergence on             energy=1.00D-06.
 No special actions if energy rises.
 SCF Done:  E(RB3LYP) =  -104.601865021     A.U. after    8 cycles
            NFock=  8  Conv=0.17D-08     -V/T= 2.2080

 **********************************************************************

            Population analysis using the SCF Density.

 **********************************************************************

 Orbital symmetries:
       Occupied  (A1) (A1) (A1) (B2) (B1) (A1) (B2) (A1) (B1)
       Virtual   (A1) (A1) (B2) (B1) (A1) (A1) (B2) (B1) (B2) (A1)
                 (B1) (A1) (B2) (A1) (B2) (A1) (A1) (B1) (B2) (A1)
                 (A1) (A1)
 The electronic state is 1-A1.
 Alpha  occ. eigenvalues --  -19.32620  -1.58113  -1.19641  -0.92457  -0.92382
 Alpha  occ. eigenvalues --   -0.91965  -0.72115  -0.56706  -0.49340
 Alpha virt. eigenvalues --   -0.19280  -0.14315  -0.11991  -0.11769  -0.06632
 Alpha virt. eigenvalues --   -0.02315  -0.01411   0.09177   0.09426   0.12543
 Alpha virt. eigenvalues --    0.46077   0.52690   0.54202   0.70205   0.76067
 Alpha virt. eigenvalues --    0.77351   1.19540   1.24520   1.24887   1.28143
 Alpha virt. eigenvalues --   20.00503  41.56408
          Condensed to atoms (all electrons):
               1          2          3          4
     1  K    8.030434   0.012143  -0.001089  -0.001089
     2  O    0.012143   8.226461   0.279229   0.279229
     3  H   -0.001089   0.279229   0.331173  -0.028043
     4  H   -0.001089   0.279229  -0.028043   0.331173
 Mulliken charges:
               1
     1  K    0.959601
     2  O   -0.797061
     3  H    0.418730
     4  H    0.418730
 Sum of Mulliken charges =   1.00000
 Mulliken charges with hydrogens summed into heavy atoms:
               1
     1  K    0.959601
     2  O    0.040399
         Mulliken charges condensed to fragments:
      1      0.959601
      2      0.040399
 Electronic spatial extent (au):  <R**2>=            168.0094
 Charge=              1.0000 electrons
 Dipole moment (field-independent basis, Debye):
    X=             -0.0000    Y=             -0.0000    Z=              1.3924  Tot=              1.3924
 Quadrupole moment (field-independent basis, Debye-Ang):
   XX=            -15.7230   YY=            -12.0206   ZZ=             -0.0618
   XY=              0.0000   XZ=              0.0000   YZ=              0.0000
 Traceless Quadrupole moment (field-independent basis, Debye-Ang):
   XX=             -6.4546   YY=             -2.7521   ZZ=              9.2067
   XY=              0.0000   XZ=              0.0000   YZ=              0.0000
 Octapole moment (field-independent basis, Debye-Ang**2):
  XXX=              0.0000  YYY=             -0.0000  ZZZ=            -15.4172  XYY=             -0.0000
  XXY=             -0.0000  XXZ=              4.8605  XZZ=             -0.0000  YZZ=              0.0000
  YYZ=             -2.7041  XYZ=             -0.0000
 Hexadecapole moment (field-independent basis, Debye-Ang**3):
 XXXX=            -12.7901 YYYY=            -11.5253 ZZZZ=            -93.3580 XXXY=             -0.0000
 XXXZ=             -0.0000 YYYX=              0.0000 YYYZ=             -0.0000 ZZZX=              0.0000
 ZZZY=             -0.0000 XXYY=             -4.3708 XXZZ=            -33.0491 YYZZ=            -17.0643
 XXYZ=             -0.0000 YYXZ=              0.0000 ZZXY=              0.0000
 N-N= 2.656565319070D+01 E-N=-2.877835052887D+02  KE= 8.659046854302D+01
 Symmetry A1   KE= 7.266734638470D+01
 Symmetry A2   KE= 0.000000000000D+00
 Symmetry B1   KE= 7.428959147354D+00
 Symmetry B2   KE= 6.494163010964D+00
 Running external command "gaunbo7 R"
         input file       "/scr/ericg/h2ko+/Gau-15292.EIn"
         output file      "/scr/ericg/h2ko+/Gau-15292.EOu"
         message file     "/scr/ericg/h2ko+/Gau-15292.EMs"
         fchk file        "/scr/ericg/h2ko+/Gau-15292.EFC"
         mat. el file     "/scr/ericg/h2ko+/Gau-15292.EUF"

 Writing WrtUnf unformatted file "/scr/ericg/h2ko+/Gau-15292.EUF"
 Gaussian matrix elements                                         Version   2 NLab=11 Len12L=8 Len4L=8
 Write SHELL TO ATOM MAP                   from file      0 offset           0 length                  19 to matrix element file.
 Write SHELL TYPES                         from file      0 offset           0 length                  19 to matrix element file.
 Write NUMBER OF PRIMITIVES PER SHELL      from file      0 offset           0 length                  19 to matrix element file.
 Write PRIMITIVE EXPONENTS                 from file      0 offset           0 length                  35 to matrix element file.
 Write CONTRACTION COEFFICIENTS            from file      0 offset           0 length                  35 to matrix element file.
 Write P(S=P) CONTRACTION COEFFICIENTS     from file      0 offset           0 length                  35 to matrix element file.
 Write COORDINATES OF EACH SHELL           from file      0 offset           0 length                  57 to matrix element file.
 Write BONDS PER ATOM                      from file      0 offset           0 length                   4 to matrix element file.
 Write BONDED ATOMS                        from file      0 offset           0 length                   6 to matrix element file.
 Write BOND TYPES                          from file      0 offset           0 length                   6 to matrix element file.
 Write ONIOM CHARGE/MULT                   from file      0 offset           0 length                  32 to matrix element file.
 Write ONIOM ATOM LAYERS                   from file      0 offset           0 length                   4 to matrix element file.
 Write ONIOM ATOM MODIFIERS                from file      0 offset           0 length                   4 to matrix element file.
 Write ONIOM ATOM TYPES                    from file      0 offset           0 length                   4 to matrix element file.
 Write ONIOM LINK ATOMS                    from file      0 offset           0 length                   4 to matrix element file.
 Write ONIOM LINK CHARGES                  from file      0 offset           0 length                   4 to matrix element file.
 Write ONIOM LINK DISTANCES                from file      0 offset           0 length                  16 to matrix element file.
 Write SYMINF INTS                         from file      0 offset           0 length                  26 to matrix element file.
 Write ROTTR TO SO                         from file      0 offset           0 length                  12 to matrix element file.
 Write GAUSSIAN SCALARS                    from file    501 offset           0 to matrix element file.
 Write OPTIMIZATION FLAGS                  from file      0 offset           0 length                   4 to matrix element file.
 Write INTEGER ISO                         from file      0 offset           0 length                   4 to matrix element file.
 Write INTEGER FRAGMENT                    from file      0 offset           0 length                   4 to matrix element file.
 Write INTEGER SPIN                        from file      0 offset           0 length                   4 to matrix element file.
 Write REAL ZEFFECTIVE                     from file      0 offset           0 length                   4 to matrix element file.
 Write REAL QUADRUPOLEMOMENT               from file      0 offset           0 length                   4 to matrix element file.
 Write REAL GFACTOR                        from file      0 offset           0 length                   4 to matrix element file.
 Write REAL ZNUCLEAR                       from file      0 offset           0 length                   4 to matrix element file.
 Write MULLIKEN CHARGES                    from file      0 offset           0 length                   4 to matrix element file.
 Write NUCLEAR GRADIENT                    from file  10584 offset           0 length                  12 to matrix element file.
 Array NUCLEAR FORCE CONSTANTS              on  file  10585 does not exist.
 Write ELECTRIC DIPOLE MOMENT              from file      0 offset           0 length                   3 to matrix element file.
 Write NON-ADIABATIC COUPLING              from file  10810 offset           0 length                  12 to matrix element file.
 Write ELECTRONS PER FRAGMENT              from file      0 offset           0 length                   8 to matrix element file.
 Write BASIS FUNCTIONS PER FRAGMENT        from file      0 offset           0 length                  96 to matrix element file.
 Write FINITE EM FIELD                     from file  10521 offset           0 length                  35 to matrix element file.
 Write OVERLAP                             from file  10514 offset           0 length                 496 to matrix element file.
 Write CORE HAMILTONIAN ALPHA              from file  10515 offset           0 length                 496 to matrix element file.
 Write CORE HAMILTONIAN BETA               from file  10515 offset         496 length                 496 to matrix element file.
 Write KINETIC ENERGY                      from file  10516 offset           0 length                 496 to matrix element file.
 Write ORTHOGONAL BASIS                    from file  10685 offset           0 length                 961 to matrix element file.
 Write DIPOLE INTEGRALS                    from file  10518 offset           0 length                1488 to matrix element file.
 Array DIP VEL INTEGRALS                    on  file  10572 does not exist.
 Array R X DEL INTEGRALS                    on  file  10572 does not exist.
 Write ALPHA ORBITAL ENERGIES              from file      0 offset           0 length                  31 to matrix element file.
 Write ALPHA MO COEFFICIENTS               from file  10524 offset           0 length                 961 to matrix element file.
 Write ALPHA DENSITY MATRIX                from file      0 offset           0 length                 496 to matrix element file.
 Write ALPHA FOCK MATRIX                   from file  10536 offset           0 length                 496 to matrix element file.
 Write ENERGY-WEIGHTED DENSITY             from file  10571 offset           0 length                 496 to matrix element file.
 Write ALPHA SCF DENSITY MATRIX            from file      0 offset           0 length                 496 to matrix element file.
 Write INTEGER PARAMETERS                  from file      0 offset           0 length                   2 to matrix element file.
 No 2e integrals to process.
 Perform NBO analysis...executing G16NBO...

 *********************************** NBO 7.0 ***********************************
             N A T U R A L   A T O M I C   O R B I T A L   A N D
          N A T U R A L   B O N D   O R B I T A L   A N A L Y S I S
 ************************ development version (D000000) ************************
  (c) Copyright 1996-2020 Board of Regents of the University of Wisconsin System
      on behalf of the Theoretical Chemistry Institute.  All rights reserved.

          Cite this program [NBO 7.0.9 (21-May-2020)] as:

          NBO 7.0.  E. D. Glendening, J. K. Badenhoop, A. E. Reed,
          J. E. Carpenter, J. A. Bohmann, C. M. Morales, P. Karafiloglou,
          C. R. Landis, and F. Weinhold, Theoretical Chemistry Institute,
          University of Wisconsin, Madison, WI (2018)


 Filename set to /scr/ericg/h2ko+/Gau-15292

 Job title: K(+)..OH2...b3lyp/sdd


 NATURAL POPULATIONS:  Natural atomic orbital occupancies

  NAO Atom No lang   Type(AO)    Occupancy      Energy
 -------------------------------------------------------
   1    K  1  s      Cor( 3s)     2.00000      -1.58087
   2    K  1  s      Val( 4s)     0.00392      -0.13601
   3    K  1  s      Ryd( 5s)     0.00002       0.17662
   4    K  1  s      Ryd( 6s)     0.00001       0.75337
   5    K  1  s      Ryd( 7s)     0.00000      19.65725
   6    K  1  px     Cor( 3p)     2.00000      -0.92381
   7    K  1  px     Ryd( 4p)     0.00142      -0.08159
   8    K  1  px     Ryd( 5p)     0.00001       0.53741
   9    K  1  px     Ryd( 6p)     0.00000       0.77871
  10    K  1  py     Cor( 3p)     1.99999      -0.92454
  11    K  1  py     Ryd( 4p)     0.00008      -0.07547
  12    K  1  py     Ryd( 5p)     0.00000       0.54066
  13    K  1  py     Ryd( 6p)     0.00000       0.79314
  14    K  1  pz     Cor( 3p)     1.99981      -0.91976
  15    K  1  pz     Ryd( 4p)     0.00032      -0.00417
  16    K  1  pz     Ryd( 5p)     0.00006       0.56217
  17    K  1  pz     Ryd( 6p)     0.00000       0.86287

  18    O  2  s      Cor( 1s)     2.00000     -19.32614
  19    O  2  s      Val( 2s)     1.76435      -0.96804
  20    O  2  s      Ryd( 3s)     0.00060       1.23965
  21    O  2  s      Ryd( 4s)     0.00000      41.47814
  22    O  2  px     Val( 2p)     1.99771      -0.49282
  23    O  2  px     Ryd( 3p)     0.00087       0.44494
  24    O  2  py     Val( 2p)     1.50075      -0.46666
  25    O  2  py     Ryd( 3p)     0.00389       0.52922
  26    O  2  pz     Val( 2p)     1.77245      -0.50100
  27    O  2  pz     Ryd( 3p)     0.00185       0.49823

  28    H  3  s      Val( 1s)     0.47582      -0.00275
  29    H  3  s      Ryd( 2s)     0.00013       0.42045

  30    H  4  s      Val( 1s)     0.47582      -0.00275
  31    H  4  s      Ryd( 2s)     0.00013       0.42045

 [10 electrons found in the effective core potential]


 Summary of Natural Population Analysis:

                                     Natural Population
             Natural    ---------------------------------------------
  Atom No    Charge        Core      Valence    Rydberg      Total
 --------------------------------------------------------------------
    K  1    0.99436     17.99980     0.00392    0.00193    18.00564
    O  2   -1.04245      2.00000     7.03525    0.00721     9.04245
    H  3    0.52405      0.00000     0.47582    0.00013     0.47595
    H  4    0.52405      0.00000     0.47582    0.00013     0.47595
 ====================================================================
 * Total *  1.00000     19.99980     7.99081    0.00940    28.00000

                                 Natural Population
 ---------------------------------------------------------
   Effective Core            10.00000
   Core                       9.99980 ( 99.9980% of   10)
   Valence                    7.99081 ( 99.8851% of    8)
   Natural Minimal Basis     27.99060 ( 99.9664% of   28)
   Natural Rydberg Basis      0.00940 (  0.0336% of   28)
 ---------------------------------------------------------

    Atom No         Natural Electron Configuration
 ----------------------------------------------------------------------------
      K  1      [core]
      O  2      [core]2s( 1.76)2p( 5.27)3p( 0.01)
      H  3            1s( 0.48)
      H  4            1s( 0.48)


 NATURAL BOND ORBITAL ANALYSIS:

 User-requested molecular units:
   1. <K1>
   2. <O2,H3,H4>

                            Occupancies       Lewis Structure    Low   High
         Max    Occ     -------------------  -----------------   occ   occ
  Cycle  Ctr   Thresh    Lewis   non-Lewis     CR  BD  nC  LP    (L)   (NL)
 ============================================================================
    1     2     1.90    27.99328   0.00672      5   2   0   2     0      0
    2     2     1.54    27.32600   0.67400      5   1   0   3     0      2
    3     2     1.50    27.04216   0.95784      5   0   0   4     0      2
    4     2     1.90    27.99328   0.00672      5   2   0   2     0      0
 ----------------------------------------------------------------------------

 Structure accepted: No low occupancy Lewis orbitals

 -------------------------------------------------------
   Effective core           10.00000
   Core                      9.99980 ( 99.998% of  10)
   Valence Lewis             7.99348 ( 99.919% of   8)
  ==================      =============================
   Total Lewis              27.99328 ( 99.976% of  28)
  -----------------------------------------------------
   Valence non-Lewis         0.00478 (  0.017% of  28)
   Rydberg non-Lewis         0.00194 (  0.007% of  28)
  ==================      =============================
   Total non-Lewis           0.00672 (  0.024% of  28)
 -------------------------------------------------------


     (Occupancy)   Bond orbital / Coefficients / Hybrids
 ------------------ Lewis ------------------------------------------------------
   1. (2.00000) CR ( 1) K  1            s(100.00%)
                                         1.0000  0.0000  0.0000  0.0000  0.0000
                                         0.0000  0.0000  0.0000  0.0000  0.0000
                                         0.0000  0.0000  0.0000  0.0000  0.0000
                                         0.0000  0.0000
   2. (2.00000) CR ( 2) K  1            s(  0.00%)p 1.00(100.00%)
                                         0.0000  0.0000  0.0000  0.0000  0.0000
                                         1.0000  0.0000  0.0000  0.0000  0.0000
                                         0.0000  0.0000  0.0000  0.0000  0.0000
                                         0.0000  0.0000
   3. (1.99999) CR ( 3) K  1            s(  0.00%)p 1.00(100.00%)
                                         0.0000  0.0000  0.0000  0.0000  0.0000
                                         0.0000  0.0000  0.0000  0.0000  1.0000
                                         0.0000  0.0000  0.0000  0.0000  0.0000
                                         0.0000  0.0000
   4. (1.99981) CR ( 4) K  1            s(  0.00%)p 1.00(100.00%)
                                         0.0000  0.0000  0.0000  0.0000  0.0000
                                         0.0000  0.0000  0.0000  0.0000  0.0000
                                         0.0000  0.0000  0.0000  1.0000  0.0000
                                         0.0000  0.0000
   5. (2.00000) CR ( 1) O  2            s(100.00%)
                                         1.0000  0.0000  0.0000  0.0000  0.0000
                                         0.0000  0.0000  0.0000  0.0000  0.0000
   6. (1.99857) LP ( 1) O  2            s(  0.00%)p 1.00(100.00%)
                                         0.0000  0.0000  0.0000  0.0000  0.9998
                                         0.0208  0.0000  0.0000  0.0000  0.0000
   7. (1.99604) LP ( 2) O  2            s( 49.07%)p 1.04( 50.93%)
                                         0.0000  0.7004 -0.0115  0.0000  0.0000
                                         0.0000  0.0000  0.0000  0.7130  0.0292
   8. (1.99944) BD ( 1) O  2- H  3
               ( 76.21%)   0.8730* O  2 s( 25.45%)p 2.93( 74.55%)
                                         0.0000  0.5044  0.0104  0.0000  0.0000
                                         0.0000  0.7062 -0.0359 -0.4955  0.0044
               ( 23.79%)   0.4877* H  3 s(100.00%)
                                         1.0000 -0.0007
   9. (1.99944) BD ( 1) O  2- H  4
               ( 76.21%)   0.8730* O  2 s( 25.45%)p 2.93( 74.55%)
                                         0.0000  0.5044  0.0104  0.0000  0.0000
                                         0.0000 -0.7062  0.0359 -0.4955  0.0044
               ( 23.79%)   0.4877* H  4 s(100.00%)
                                         1.0000 -0.0007
 ---------------- non-Lewis ----------------------------------------------------
  10. (0.00426) LV ( 1) K  1            s( 91.88%)p 0.09(  8.12%)
                                         0.0000  0.9585  0.0016 -0.0001  0.0000
                                         0.0000  0.0000  0.0000  0.0000  0.0000
                                         0.0000  0.0000  0.0000  0.0000 -0.2588
                                        -0.1193 -0.0008
  11. (0.00026) BD*( 1) O  2- H  3
               ( 23.79%)   0.4877* O  2 s( 25.45%)p 2.93( 74.55%)
                                         0.0000 -0.5044 -0.0104  0.0000  0.0000
                                         0.0000 -0.7062  0.0359  0.4955 -0.0044
               ( 76.21%)  -0.8730* H  3 s(100.00%)
                                        -1.0000  0.0007
  12. (0.00026) BD*( 1) O  2- H  4
               ( 23.79%)   0.4877* O  2 s( 25.45%)p 2.93( 74.55%)
                                         0.0000 -0.5044 -0.0104  0.0000  0.0000
                                         0.0000  0.7062 -0.0359  0.4955 -0.0044
               ( 76.21%)  -0.8730* H  4 s(100.00%)
                                        -1.0000  0.0007
  13. (0.00143) RY ( 1) K  1            s(  0.00%)p 1.00(100.00%)
                                         0.0000  0.0000  0.0000  0.0000  0.0000
                                         0.0000  0.9962 -0.0869  0.0027  0.0000
                                         0.0000  0.0000  0.0000  0.0000  0.0000
                                         0.0000  0.0000
  14. (0.00008) RY ( 2) K  1            s(  0.00%)p 1.00(100.00%)
  15. (0.00006) RY ( 3) K  1            s( 42.61%)p 1.35( 57.39%)
  16. (0.00001) RY ( 4) K  1            s( 71.78%)p 0.39( 28.22%)
  17. (0.00000) RY ( 5) K  1            s(  0.00%)p 1.00(100.00%)
  18. (0.00000) RY ( 6) K  1            s( 10.02%)p 8.98( 89.98%)
  19. (0.00000) RY ( 7) K  1            s(  0.00%)p 1.00(100.00%)
  20. (0.00000) RY ( 8) K  1            s( 52.49%)p 0.91( 47.51%)
  21. (0.00000) RY ( 9) K  1            s( 94.13%)p 0.06(  5.87%)
  22. (0.00000) RY (10) K  1            s( 37.08%)p 1.70( 62.92%)
  23. (0.00000) RY (11) K  1            s(  0.00%)p 1.00(100.00%)
  24. (0.00000) RY (12) K  1            s(  0.00%)p 1.00(100.00%)
  25. (0.00009) RY ( 1) O  2            s(  4.65%)p20.50( 95.35%)
  26. (0.00000) RY ( 2) O  2            s( 95.38%)p 0.05(  4.62%)
  27. (0.00000) RY ( 3) O  2            s(  0.00%)p 1.00(100.00%)
  28. (0.00000) RY ( 4) O  2            s(100.00%)p 0.00(  0.00%)
  29. (0.00000) RY ( 5) O  2            s(  0.00%)p 1.00(100.00%)
  30. (0.00013) RY ( 1) H  3            s(100.00%)
                                         0.0007  1.0000
  31. (0.00013) RY ( 1) H  4            s(100.00%)
                                         0.0007  1.0000


 NHO DIRECTIONALITY AND BOND BENDING (deviation from line of nuclear centers at
                                      the position of maximum hybrid amplitude)

         [Thresholds for printing:  angular deviation  >  1.0 degree]
                                    p- or d-character  > 25.0%
                                    orbital occupancy  >  0.10e

                        Line of Centers        Hybrid 1             Hybrid 2
                        ---------------  -------------------  ------------------
           NBO            Theta   Phi    Theta   Phi    Dev   Theta   Phi    Dev
 ===============================================================================
   6. LP ( 1) O  2          --     --     90.0  180.0   --      --     --    --


 SECOND ORDER PERTURBATION THEORY ANALYSIS OF FOCK MATRIX IN NBO BASIS

     Threshold for printing:   0.50 kcal/mol
    (Intermolecular threshold: 0.05 kcal/mol)
                                                          E(2) E(NL)-E(L) F(L,NL)
      Donor (L) NBO              Acceptor (NL) NBO      kcal/mol   a.u.    a.u.
 ===============================================================================

 within unit  1
       None above threshold

 from unit  1 to unit  2
    4. CR ( 4) K  1            25. RY ( 1) O  2            0.08    1.44   0.010

 from unit  2 to unit  1
    6. LP ( 1) O  2            13. RY ( 1) K  1            0.36    0.40   0.011
    7. LP ( 2) O  2            10. LV ( 1) K  1            1.21    0.62   0.024
    7. LP ( 2) O  2            20. RY ( 8) K  1            0.09    1.09   0.009

 within unit  2
       None above threshold


 NATURAL BOND ORBITALS (Summary):

                                                     Principal Delocalizations
           NBO                 Occupancy    Energy   (geminal,vicinal,remote)
 ===============================================================================
 Molecular unit  1  (K)
 ------ Lewis --------------------------------------
    1. CR ( 1) K  1             2.00000    -1.58087
    2. CR ( 2) K  1             2.00000    -0.92381
    3. CR ( 3) K  1             1.99999    -0.92454
    4. CR ( 4) K  1             1.99981    -0.91976  25(r)
 ------ non-Lewis ----------------------------------
   10. LV ( 1) K  1             0.00426    -0.09540
   13. RY ( 1) K  1             0.00143    -0.09705
   14. RY ( 2) K  1             0.00008    -0.07879
   15. RY ( 3) K  1             0.00006     0.09572
   16. RY ( 4) K  1             0.00001     0.63419
   17. RY ( 5) K  1             0.00000     0.34371
   18. RY ( 6) K  1             0.00000     1.10823
   19. RY ( 7) K  1             0.00000     0.52345
   20. RY ( 8) K  1             0.00000     0.38219
   21. RY ( 9) K  1             0.00000    16.96686
   22. RY (10) K  1             0.00000     2.78027
   23. RY (11) K  1             0.00000     0.99345
   24. RY (12) K  1             0.00000     0.80812
          -------------------------------
                 Total Lewis   17.99980  ( 99.9675%)
           Valence non-Lewis    0.00426  (  0.0237%)
           Rydberg non-Lewis    0.00158  (  0.0088%)
          -------------------------------
               Total unit  1   18.00564  (100.0000%)
              Charge unit  1    0.99436

 Molecular unit  2  (H2O)
 ------ Lewis --------------------------------------
    5. CR ( 1) O  2             2.00000   -19.32614
    6. LP ( 1) O  2             1.99857    -0.49313  13(r)
    7. LP ( 2) O  2             1.99604    -0.71258  10(r),20(r)
    8. BD ( 1) O  2- H  3       1.99944    -0.88535
    9. BD ( 1) O  2- H  4       1.99944    -0.88535
 ------ non-Lewis ----------------------------------
   11. BD*( 1) O  2- H  3       0.00026     0.27254
   12. BD*( 1) O  2- H  4       0.00026     0.27254
   25. RY ( 1) O  2             0.00009     0.51739
   26. RY ( 2) O  2             0.00000     1.51663
   27. RY ( 3) O  2             0.00000     0.44524
   28. RY ( 4) O  2             0.00000    41.18170
   29. RY ( 5) O  2             0.00000     0.52739
   30. RY ( 1) H  3             0.00013     0.42001
   31. RY ( 1) H  4             0.00013     0.42001
          -------------------------------
                 Total Lewis    9.99348  ( 99.9912%)
           Valence non-Lewis    0.00052  (  0.0052%)
           Rydberg non-Lewis    0.00036  (  0.0036%)
          -------------------------------
               Total unit  2    9.99436  (100.0000%)
              Charge unit  2    0.00564

 $CHOOSE
   LONE 2 2 END
   BOND S 2 3 S 2 4 END
 $END

 NBO analysis completed in 0.05 CPU seconds (0 wall seconds)
 Maximum scratch memory used by NBO was 323504 words (2.47 MB)
 Maximum scratch memory used by G16NBO was 9740 words (0.07 MB)


 NEDA: Natural Energy Decomposition Analysis
 Deletion of the NAO Fock matrix elements between orbitals:
    1   2   3   4   5   6   7   8   9  10  11  12  13  14  15  16  17
 and orbitals:
   18  19  20  21  22  23  24  25  26  27  28  29  30  31

 Orbital occupancies:

       Orbital                         No deletions  This deletion    Change
 ------------------------------------------------------------------------------
    1.  K 1( 3s )                        2.00000        2.00000       0.00000
    2.  K 1( 4s )                        0.00392        0.00006      -0.00385
    3.  K 1( 5s )                        0.00002        0.00000      -0.00002
    4.  K 1( 6s )                        0.00001        0.00000       0.00000
    5.  K 1( 7s )                        0.00000        0.00000       0.00000
    6.  K 1( 3px)                        2.00000        2.00000       0.00000
    7.  K 1( 4px)                        0.00142        0.00000      -0.00142
    8.  K 1( 5px)                        0.00001        0.00000      -0.00001
    9.  K 1( 6px)                        0.00000        0.00000       0.00000
   10.  K 1( 3py)                        1.99999        2.00000       0.00000
   11.  K 1( 4py)                        0.00008        0.00000      -0.00008
   12.  K 1( 5py)                        0.00000        0.00000       0.00000
   13.  K 1( 6py)                        0.00000        0.00000       0.00000
   14.  K 1( 3pz)                        1.99981        1.99992       0.00011
   15.  K 1( 4pz)                        0.00032        0.00000      -0.00031
   16.  K 1( 5pz)                        0.00006        0.00000      -0.00006
   17.  K 1( 6pz)                        0.00000        0.00001       0.00000
   18.  O 2( 1s )                        2.00000        2.00000       0.00000
   19.  O 2( 2s )                        1.76435        1.76715       0.00280
   20.  O 2( 3s )                        0.00060        0.00062       0.00002
   21.  O 2( 4s )                        0.00000        0.00000       0.00000
   22.  O 2( 2px)                        1.99771        1.99934       0.00163
   23.  O 2( 3px)                        0.00087        0.00066      -0.00020
   24.  O 2( 2py)                        1.50075        1.50057      -0.00017
   25.  O 2( 3py)                        0.00389        0.00396       0.00008
   26.  O 2( 2pz)                        1.77245        1.77220      -0.00025
   27.  O 2( 3pz)                        0.00185        0.00155      -0.00031
   28.  H 3( 1s )                        0.47582        0.47685       0.00103
   29.  H 3( 2s )                        0.00013        0.00013      -0.00001
   30.  H 4( 1s )                        0.47582        0.47685       0.00103
   31.  H 4( 2s )                        0.00013        0.00013      -0.00001

 NEXT STEP:  Perform one SCF cycle to evaluate the energy of the new density
             matrix constructed from the deleted NAO Fock matrix.

 ------------------------------------------------------------------------------
 Opening RunExU unformatted file "/scr/ericg/h2ko+/Gau-15292.EUF"
 Read unf file /scr/ericg/h2ko+/Gau-15292.EUF:
 Label Gaussian matrix elements                                         IVers= 2 NLab= 2 Version=ES64L-G16RevC.01
 Title K(+)..OH2...b3lyp/sdd                                           
 NAtoms=     4 NBasis=    31 NBsUse=    31 ICharg=     1 Multip=     1 NE=    18 Len12L=8 Len4L=8 IOpCl= 0 ICGU=111
 GAUSSIAN SCALARS                    NI= 1 NR= 1 NTot=       1 LenBuf=    2 NRI=1 N=    1000
 ALPHA DENSITY MATRIX                NI= 0 NR= 1 NTot=     496 LenBuf= 4000 NRI=1 N=     -31      31
 Store file  10528 Len=     496.
 ALPHA MO COEFFICIENTS               NI= 0 NR= 1 NTot=     961 LenBuf= 4000 NRI=1 N=      31      31
 Store file  10524 Len=     961.
 NPA CHARGES                         NI= 0 NR= 1 NTot=       4 LenBuf= 4000 NRI=1 N=       4
 Recovered energy= -104.601865021     dipole=     -0.000000000000     -0.000000000000      0.547814359430
 Keep R1 ints in memory in symmetry-blocked form, NReq=3581077.
 Requested convergence on RMS density matrix=1.00D-08 within   1 cycles.
 Requested convergence on MAX density matrix=1.00D-06.
 Requested convergence on             energy=1.00D-06.
 No special actions if energy rises.
 Fock symm off for IB=3 I1=    1 I=   18 J=    7 Cut=1.00D-04 Err=3.95D-04
 Fock matrix is not symmetric: symmetry in diagonalization turned off.
 >>>>>>>>>> Convergence criterion not met.
 SCF Done:  E(RB3LYP) =  -104.598996246     A.U. after    2 cycles
            NFock=  1  Conv=0.37D-02     -V/T= 2.2096
 LocMO: Using population method
 Initial Trace= 0.90000000D+01 Initial TraceA= 0.79980815D+01
 RMSG= 0.77045456D-09
 OPopF ISpin=          1
                 1             2 
      1   0.591847D-04  0.999941D+00
      2   0.999943D+00  0.573585D-04
      3   0.417987D-03  0.999582D+00
      4   0.100004D+01 -0.436396D-04
      5   0.100010D+01 -0.100896D-03
      6   0.100364D+01 -0.363808D-02
      7   0.417987D-03  0.999582D+00
      8   0.118644D-01  0.988136D+00
      9   0.316250D-02  0.996837D+00
 MOUse ISpin=          1
              1
     1            2
     2            1
     3            2
     4            1
     5            1
     6            1
     7            2
     8            2
     9            2
 IndI ISpin=          1
              1
     1            2
     2            4
     3            5
     4            6
     5            1
     6            3
     7            7
     8            8
     9            9
 Running external command "gaunbo7 R"
         input file       "/scr/ericg/h2ko+/Gau-15292.EIn"
         output file      "/scr/ericg/h2ko+/Gau-15292.EOu"
         message file     "/scr/ericg/h2ko+/Gau-15292.EMs"
         fchk file        "/scr/ericg/h2ko+/Gau-15292.EFC"
         mat. el file     "/scr/ericg/h2ko+/Gau-15292.EUF"

 Writing WrtUnf unformatted file "/scr/ericg/h2ko+/Gau-15292.EUF"
 Gaussian matrix elements                                         Version   2 NLab=11 Len12L=8 Len4L=8
 Write SHELL TO ATOM MAP                   from file      0 offset           0 length                  19 to matrix element file.
 Write SHELL TYPES                         from file      0 offset           0 length                  19 to matrix element file.
 Write NUMBER OF PRIMITIVES PER SHELL      from file      0 offset           0 length                  19 to matrix element file.
 Write PRIMITIVE EXPONENTS                 from file      0 offset           0 length                  35 to matrix element file.
 Write CONTRACTION COEFFICIENTS            from file      0 offset           0 length                  35 to matrix element file.
 Write P(S=P) CONTRACTION COEFFICIENTS     from file      0 offset           0 length                  35 to matrix element file.
 Write COORDINATES OF EACH SHELL           from file      0 offset           0 length                  57 to matrix element file.
 Write BONDS PER ATOM                      from file      0 offset           0 length                   4 to matrix element file.
 Write BONDED ATOMS                        from file      0 offset           0 length                   6 to matrix element file.
 Write BOND TYPES                          from file      0 offset           0 length                   6 to matrix element file.
 Write ONIOM CHARGE/MULT                   from file      0 offset           0 length                  32 to matrix element file.
 Write ONIOM ATOM LAYERS                   from file      0 offset           0 length                   4 to matrix element file.
 Write ONIOM ATOM MODIFIERS                from file      0 offset           0 length                   4 to matrix element file.
 Write ONIOM ATOM TYPES                    from file      0 offset           0 length                   4 to matrix element file.
 Write ONIOM LINK ATOMS                    from file      0 offset           0 length                   4 to matrix element file.
 Write ONIOM LINK CHARGES                  from file      0 offset           0 length                   4 to matrix element file.
 Write ONIOM LINK DISTANCES                from file      0 offset           0 length                  16 to matrix element file.
 Write SYMINF INTS                         from file      0 offset           0 length                  26 to matrix element file.
 Write ROTTR TO SO                         from file      0 offset           0 length                  12 to matrix element file.
 Write GAUSSIAN SCALARS                    from file    501 offset           0 to matrix element file.
 Write OPTIMIZATION FLAGS                  from file      0 offset           0 length                   4 to matrix element file.
 Write INTEGER ISO                         from file      0 offset           0 length                   4 to matrix element file.
 Write INTEGER FRAGMENT                    from file      0 offset           0 length                   4 to matrix element file.
 Write INTEGER SPIN                        from file      0 offset           0 length                   4 to matrix element file.
 Write REAL ZEFFECTIVE                     from file      0 offset           0 length                   4 to matrix element file.
 Write REAL QUADRUPOLEMOMENT               from file      0 offset           0 length                   4 to matrix element file.
 Write REAL GFACTOR                        from file      0 offset           0 length                   4 to matrix element file.
 Write REAL ZNUCLEAR                       from file      0 offset           0 length                   4 to matrix element file.
 Write MULLIKEN CHARGES                    from file      0 offset           0 length                   4 to matrix element file.
 Write NUCLEAR GRADIENT                    from file  10584 offset           0 length                  12 to matrix element file.
 Array NUCLEAR FORCE CONSTANTS              on  file  10585 does not exist.
 Write ELECTRIC DIPOLE MOMENT              from file      0 offset           0 length                   3 to matrix element file.
 Write NON-ADIABATIC COUPLING              from file  10810 offset           0 length                  12 to matrix element file.
 Write ELECTRONS PER FRAGMENT              from file      0 offset           0 length                   8 to matrix element file.
 Write BASIS FUNCTIONS PER FRAGMENT        from file      0 offset           0 length                  96 to matrix element file.
 Write FINITE EM FIELD                     from file  10521 offset           0 length                  35 to matrix element file.
 Write OVERLAP                             from file  10514 offset           0 length                 496 to matrix element file.
 Write CORE HAMILTONIAN ALPHA              from file  10515 offset           0 length                 496 to matrix element file.
 Write CORE HAMILTONIAN BETA               from file  10515 offset         496 length                 496 to matrix element file.
 Write KINETIC ENERGY                      from file  10516 offset           0 length                 496 to matrix element file.
 Write ORTHOGONAL BASIS                    from file  10685 offset           0 length                 961 to matrix element file.
 Write DIPOLE INTEGRALS                    from file  10518 offset           0 length                1488 to matrix element file.
 Array DIP VEL INTEGRALS                    on  file  10572 does not exist.
 Array R X DEL INTEGRALS                    on  file  10572 does not exist.
 Write ALPHA ORBITAL ENERGIES              from file      0 offset           0 length                  31 to matrix element file.
 Write ALPHA MO COEFFICIENTS               from file  10524 offset           0 length                 961 to matrix element file.
 Write ALPHA DENSITY MATRIX                from file      0 offset           0 length                 496 to matrix element file.
 Write ALPHA FOCK MATRIX                   from file  10536 offset           0 length                 496 to matrix element file.
 Write ENERGY-WEIGHTED DENSITY             from file  10571 offset           0 length                 496 to matrix element file.
 Write FRAGMENT DENSITY MATRICES           from file  10774 offset           0 length                 992 to matrix element file.
 Write ALPHA SCF DENSITY MATRIX            from file      0 offset           0 length                 496 to matrix element file.
 Write INTEGER PARAMETERS                  from file      0 offset           0 length                   2 to matrix element file.
 No 2e integrals to process.
 Perform NBO analysis...executing G16NBO...

 ------------------------------------------------------------------------------
   Energy of deletion :       -104.598996246
     Total SCF energy :       -104.601865021
                          -------------------
        Energy change :          0.002869 a.u.,           1.800 kcal/mol
 ------------------------------------------------------------------------------
 Opening RunExU unformatted file "/scr/ericg/h2ko+/Gau-15292.EUF"
 Read unf file /scr/ericg/h2ko+/Gau-15292.EUF:
 Label Gaussian matrix elements                                         IVers= 2 NLab= 2 Version=ES64L-G16RevC.01
 Title K(+)..OH2...b3lyp/sdd                                           
 NAtoms=     4 NBasis=    31 NBsUse=    31 ICharg=     1 Multip=     1 NE=    18 Len12L=8 Len4L=8 IOpCl= 0 ICGU=111
 GAUSSIAN SCALARS                    NI= 1 NR= 1 NTot=       1 LenBuf=    2 NRI=1 N=    1000
 FRAGMENT DENSITY MATRICES           NI= 0 NR= 1 NTot=     992 LenBuf= 4000 NRI=1 N=     -31      31       1       2
 Store file  10774 Len=     992.
 Recovered energy= -104.598996246     dipole=     -0.000000000000     -0.000000000000      0.547814359430
 CPIOFr:  IOpCl= 0 IRwI=-1 IRwCP=  731 ICalc= -1 LCPTot=        2339 Len1MO=        5153 IndFrg=        2339
 CPIOFr:  IOpCl= 0 IRwI=-1 IRwCP=  731 ICalc=  0 LCPTot=        2339 Len1MO=        5153 IndFrg=        7492
 NEDA: doing calculation for fragment   1 using the basis set of the full-system, NewBq=T
 Basis read from rwf:  (6D, 10F)
 Pseudo-potential data read from rwf file.
 There are    17 symmetry adapted cartesian basis functions of A1  symmetry.
 There are     0 symmetry adapted cartesian basis functions of A2  symmetry.
 There are     6 symmetry adapted cartesian basis functions of B1  symmetry.
 There are     8 symmetry adapted cartesian basis functions of B2  symmetry.
 There are    17 symmetry adapted basis functions of A1  symmetry.
 There are     0 symmetry adapted basis functions of A2  symmetry.
 There are     6 symmetry adapted basis functions of B1  symmetry.
 There are     8 symmetry adapted basis functions of B2  symmetry.
    31 basis functions,    57 primitive gaussians,    31 cartesian basis functions
     4 alpha electrons        4 beta electrons
       nuclear repulsion energy         0.0000000000 Hartrees.
 NAtoms=    4 NActive=    4 NUniq=    3 SFac= 1.78D+00 NAtFMM=   60 NAOKFM=F Big=F
 Integral buffers will be    131072 words long.
 Raffenetti 2 integral format.
 Two-electron integral symmetry is turned on.
 One-electron integrals computed using PRISM.
   4 Symmetry operations used in ECPInt.
 ECPInt:  NShTT=     190 NPrTT=     663 LenC2=     191 LenP2D=     618.
 LDataN:  DoStor=T MaxTD1= 5 Len=  102
 NBasis=    31 RedAO= T EigKep=  4.27D-02  NBF=    17     0     6     8
 NBsUse=    31 1.00D-06 EigRej= -1.00D+00 NBFU=    17     0     6     8
 Initial guess from the read-write file.
 Symmetry OAOs for initial guess.
 Keep R1 ints in memory in symmetry-blocked form, NReq=3581134.
 Requested convergence on RMS density matrix=1.00D-08 within 128 cycles.
 Requested convergence on MAX density matrix=1.00D-06.
 Requested convergence on             energy=1.00D-06.
 No special actions if energy rises.
 NEDASv:  IAct=1 IFrag=     1 NFrag=     2 L1Frag=        3488 IndFrg=           0.
 FoFJK:  IHMeth= 1 ICntrl=     200 DoSepK=F KAlg= 0 I1Cent=           0 FoldK=F
 IRaf=         0 NMat=       1 IRICut=       1 DoRegI=T DoRafI=F ISym2E= 0 IDoP0=0 IntGTp=1.
          EJ=  20.8221535899177    
 NEDASv:  IAct=2 IFrag=     1 NFrag=     2 L1Frag=        3488 IndFrg=           0.
          EJ=  20.8594314518835    
 SCF Done:  E(RB3LYP) =  -28.1499578987     A.U. after    5 cycles
            NFock=  5  Conv=0.97D-08     -V/T= 3.6730
 CPIOFr:  IOpCl= 0 IRwI=-1 IRwCP=  731 ICalc=  1 LCPTot=        2339 Len1MO=        5153 IndFrg=       12645
 NEDA: doing calculation for fragment   2 using the basis set of the full-system, NewBq=T
 Basis read from rwf:  (6D, 10F)
 Pseudo-potential data read from rwf file.
 There are    17 symmetry adapted cartesian basis functions of A1  symmetry.
 There are     0 symmetry adapted cartesian basis functions of A2  symmetry.
 There are     6 symmetry adapted cartesian basis functions of B1  symmetry.
 There are     8 symmetry adapted cartesian basis functions of B2  symmetry.
 There are    17 symmetry adapted basis functions of A1  symmetry.
 There are     0 symmetry adapted basis functions of A2  symmetry.
 There are     6 symmetry adapted basis functions of B1  symmetry.
 There are     8 symmetry adapted basis functions of B2  symmetry.
    31 basis functions,    57 primitive gaussians,    31 cartesian basis functions
     5 alpha electrons        5 beta electrons
       nuclear repulsion energy         8.9916406358 Hartrees.
 NAtoms=    4 NActive=    4 NUniq=    3 SFac= 1.78D+00 NAtFMM=   60 NAOKFM=F Big=F
 Integral buffers will be    131072 words long.
 Raffenetti 2 integral format.
 Two-electron integral symmetry is turned on.
 One-electron integrals computed using PRISM.
   4 Symmetry operations used in ECPInt.
 ECPInt:  NShTT=     190 NPrTT=     663 LenC2=     191 LenP2D=     618.
 LDataN:  DoStor=T MaxTD1= 2 Len=   12
 NBasis=    31 RedAO= T EigKep=  4.27D-02  NBF=    17     0     6     8
 NBsUse=    31 1.00D-06 EigRej= -1.00D+00 NBFU=    17     0     6     8
 Initial guess from the read-write file.
 Symmetry OAOs for initial guess.
 Keep R1 ints in memory in symmetry-blocked form, NReq=3581134.
 Requested convergence on RMS density matrix=1.00D-08 within 128 cycles.
 Requested convergence on MAX density matrix=1.00D-06.
 Requested convergence on             energy=1.00D-06.
 No special actions if energy rises.
 NEDASv:  IAct=1 IFrag=     2 NFrag=     2 L1Frag=        3488 IndFrg=        3488.
 FoFJK:  IHMeth= 1 ICntrl=     200 DoSepK=F KAlg= 0 I1Cent=           0 FoldK=F
 IRaf=         0 NMat=       1 IRICut=       1 DoRegI=T DoRafI=F ISym2E= 0 IDoP0=0 IntGTp=1.
          EJ=  46.8451884243610    
 NEDASv:  IAct=2 IFrag=     2 NFrag=     2 L1Frag=        3488 IndFrg=        3488.
          EJ=  46.5877831771980    
 SCF Done:  E(RB3LYP) =  -76.4162267498     A.U. after    8 cycles
            NFock=  8  Conv=0.16D-08     -V/T= 2.0049
 CPIOFr:  IOpCl= 0 IRwI=-1 IRwCP=  731 ICalc=  2 LCPTot=        2339 Len1MO=        5153 IndFrg=       17798
                          Input orientation:                          
 ---------------------------------------------------------------------
 Center     Atomic      Atomic             Coordinates (Angstroms)
 Number     Number       Type             X           Y           Z
 ---------------------------------------------------------------------
      1         19           0        0.000000    0.000000    0.935574
      2          8           0        0.000000   -0.000000   -1.663657
      3          1           0        0.000000    0.794762   -2.233325
      4          1           0       -0.000000   -0.794762   -2.233325
 ---------------------------------------------------------------------
                    Distance matrix (angstroms):
                    1          2          3          4
     1  K    0.000000
     2  O    2.599231   0.000000
     3  H    3.267043   0.977839   0.000000
     4  H    3.267043   0.977839   1.589524   0.000000
 Stoichiometry    H2KO(1+)
 Framework group  C2V[C2(OK),SGV(H2)]
 Deg. of freedom     3
 Full point group                 C2V     NOp   4
 Largest Abelian subgroup         C2V     NOp   4
 Largest concise Abelian subgroup C2      NOp   2
                         Standard orientation:                         
 ---------------------------------------------------------------------
 Center     Atomic      Atomic             Coordinates (Angstroms)
 Number     Number       Type             X           Y           Z
 ---------------------------------------------------------------------
      1         19           0       -0.000000   -0.000000    0.935574
      2          8           0        0.000000    0.000000   -1.663657
      3          1           0        0.000000    0.794762   -2.233325
      4          1           0       -0.000000   -0.794762   -2.233325
 ---------------------------------------------------------------------
 Rotational constants (GHZ):         396.9427488           5.7476728           5.6656352

 **********************************************************************

            Population analysis using the SCF Density.

 **********************************************************************

 Orbital symmetries:
       Occupied  (A1) (A1) (B2) (A1) (B1) (A1) (A1) (B1) (B2)
       Virtual   (A1) (A1) (B2) (B2) (B1) (A1) (A1) (B1) (B2) (A1)
                 (B2) (A1) (B1) (B2) (A1) (A1) (A1) (B1) (B2) (A1)
                 (A1) (A1)
 The electronic state is 1-A1.
 Alpha  occ. eigenvalues --  -19.14292  -1.01640  -0.54064  -0.36131  -0.30439
 Alpha  occ. eigenvalues --   -0.01178   0.03177   0.04182   0.04204
 Alpha virt. eigenvalues --    0.09327   0.13353   0.14757   0.33476   0.33577
 Alpha virt. eigenvalues --    0.36237   0.47485   0.64898   0.75271   0.80921
 Alpha virt. eigenvalues --    0.92349   0.92963   1.16153   1.16881   1.17285
 Alpha virt. eigenvalues --    1.39448   1.88529   3.65262   3.65524   3.67280
 Alpha virt. eigenvalues --    7.88030  41.74800
          Condensed to atoms (all electrons):
               1          2          3          4
     1  K    0.005562   0.033399  -0.002227  -0.002227
     2  O    0.033399   8.128698   0.262763   0.262763
     3  H   -0.002227   0.262763   0.414463  -0.036063
     4  H   -0.002227   0.262763  -0.036063   0.414463
 Mulliken charges:
               1
     1  K    8.965492
     2  O   -0.687622
     3  H    0.361065
     4  H    0.361065
 Sum of Mulliken charges =   9.00000
 Mulliken charges with hydrogens summed into heavy atoms:
               1
     1  K    8.965492
     2  O    0.034508
         Mulliken charges condensed to fragments:
      1      8.965492
      2      0.034508
 Electronic spatial extent (au):  <R**2>=            125.9471
 Charge=              9.0000 electrons
 Dipole moment (field-independent basis, Debye):
    X=             -0.0000    Y=             -0.0000    Z=             37.8391  Tot=             37.8391
 Quadrupole moment (field-independent basis, Debye-Ang):
   XX=             -7.5592   YY=             -4.1081   ZZ=             40.4371
   XY=              0.0000   XZ=              0.0000   YZ=              0.0000
 Traceless Quadrupole moment (field-independent basis, Debye-Ang):
   XX=            -17.1492   YY=            -13.6980   ZZ=             30.8472
   XY=              0.0000   XZ=              0.0000   YZ=              0.0000
 Octapole moment (field-independent basis, Debye-Ang**2):
  XXX=              0.0000  YYY=              0.0000  ZZZ=             43.7285  XYY=             -0.0000
  XXY=              0.0000  XXZ=             12.6545  XZZ=             -0.0000  YZZ=              0.0000
  YYZ=              5.8131  XYZ=             -0.0000
 Hexadecapole moment (field-independent basis, Debye-Ang**3):
 XXXX=             -7.5318 YYYY=             -6.5677 ZZZZ=            -28.2557 XXXY=             -0.0000
 XXXZ=             -0.0000 YYYX=             -0.0000 YYYZ=              0.0000 ZZZX=              0.0000
 ZZZY=              0.0000 XXYY=             -2.6249 XXZZ=            -24.5080 YYZZ=            -10.2587
 XXYZ=              0.0000 YYXZ=              0.0000 ZZXY=              0.0000
 N-N= 8.991640635785D+00 E-N=-1.987110927122D+02  KE= 7.604400499147D+01
 Running external command "gaunbo7 R"
         input file       "/scr/ericg/h2ko+/Gau-15292.EIn"
         output file      "/scr/ericg/h2ko+/Gau-15292.EOu"
         message file     "/scr/ericg/h2ko+/Gau-15292.EMs"
         fchk file        "/scr/ericg/h2ko+/Gau-15292.EFC"
         mat. el file     "/scr/ericg/h2ko+/Gau-15292.EUF"

 Writing WrtUnf unformatted file "/scr/ericg/h2ko+/Gau-15292.EUF"
 Gaussian matrix elements                                         Version   2 NLab=11 Len12L=8 Len4L=8
 Write SHELL TO ATOM MAP                   from file      0 offset           0 length                  19 to matrix element file.
 Write SHELL TYPES                         from file      0 offset           0 length                  19 to matrix element file.
 Write NUMBER OF PRIMITIVES PER SHELL      from file      0 offset           0 length                  19 to matrix element file.
 Write PRIMITIVE EXPONENTS                 from file      0 offset           0 length                  35 to matrix element file.
 Write CONTRACTION COEFFICIENTS            from file      0 offset           0 length                  35 to matrix element file.
 Write P(S=P) CONTRACTION COEFFICIENTS     from file      0 offset           0 length                  35 to matrix element file.
 Write COORDINATES OF EACH SHELL           from file      0 offset           0 length                  57 to matrix element file.
 Write BONDS PER ATOM                      from file      0 offset           0 length                   4 to matrix element file.
 Write BONDED ATOMS                        from file      0 offset           0 length                   6 to matrix element file.
 Write BOND TYPES                          from file      0 offset           0 length                   6 to matrix element file.
 Write ONIOM CHARGE/MULT                   from file      0 offset           0 length                  32 to matrix element file.
 Write ONIOM ATOM LAYERS                   from file      0 offset           0 length                   4 to matrix element file.
 Write ONIOM ATOM MODIFIERS                from file      0 offset           0 length                   4 to matrix element file.
 Write ONIOM ATOM TYPES                    from file      0 offset           0 length                   4 to matrix element file.
 Write ONIOM LINK ATOMS                    from file      0 offset           0 length                   4 to matrix element file.
 Write ONIOM LINK CHARGES                  from file      0 offset           0 length                   4 to matrix element file.
 Write ONIOM LINK DISTANCES                from file      0 offset           0 length                  16 to matrix element file.
 Write SYMINF INTS                         from file      0 offset           0 length                  26 to matrix element file.
 Write ROTTR TO SO                         from file      0 offset           0 length                  12 to matrix element file.
 Write GAUSSIAN SCALARS                    from file    501 offset           0 to matrix element file.
 Write OPTIMIZATION FLAGS                  from file      0 offset           0 length                   4 to matrix element file.
 Write INTEGER ISO                         from file      0 offset           0 length                   4 to matrix element file.
 Write INTEGER FRAGMENT                    from file      0 offset           0 length                   4 to matrix element file.
 Write INTEGER SPIN                        from file      0 offset           0 length                   4 to matrix element file.
 Write REAL ZEFFECTIVE                     from file      0 offset           0 length                   4 to matrix element file.
 Write REAL QUADRUPOLEMOMENT               from file      0 offset           0 length                   4 to matrix element file.
 Write REAL GFACTOR                        from file      0 offset           0 length                   4 to matrix element file.
 Write REAL ZNUCLEAR                       from file      0 offset           0 length                   4 to matrix element file.
 Write MULLIKEN CHARGES                    from file      0 offset           0 length                   4 to matrix element file.
 Write NUCLEAR GRADIENT                    from file  10584 offset           0 length                  12 to matrix element file.
 Array NUCLEAR FORCE CONSTANTS              on  file  10585 does not exist.
 Write ELECTRIC DIPOLE MOMENT              from file      0 offset           0 length                   3 to matrix element file.
 Write NON-ADIABATIC COUPLING              from file  10810 offset           0 length                  12 to matrix element file.
 Write ELECTRONS PER FRAGMENT              from file      0 offset           0 length                   8 to matrix element file.
 Write BASIS FUNCTIONS PER FRAGMENT        from file      0 offset           0 length                  96 to matrix element file.
 Write FINITE EM FIELD                     from file  10521 offset           0 length                  35 to matrix element file.
 Write OVERLAP                             from file  10514 offset           0 length                 496 to matrix element file.
 Write CORE HAMILTONIAN ALPHA              from file  10515 offset           0 length                 496 to matrix element file.
 Write CORE HAMILTONIAN BETA               from file  10515 offset         496 length                 496 to matrix element file.
 Write KINETIC ENERGY                      from file  10516 offset           0 length                 496 to matrix element file.
 Array ORTHOGONAL BASIS                     on  file  10685 does not exist.
 Write DIPOLE INTEGRALS                    from file  10518 offset           0 length                1488 to matrix element file.
 Array DIP VEL INTEGRALS                    on  file  10572 does not exist.
 Array R X DEL INTEGRALS                    on  file  10572 does not exist.
 Write ALPHA ORBITAL ENERGIES              from file      0 offset           0 length                  31 to matrix element file.
 Write ALPHA MO COEFFICIENTS               from file  10524 offset           0 length                 961 to matrix element file.
 Write ALPHA DENSITY MATRIX                from file      0 offset           0 length                 496 to matrix element file.
 Write ALPHA FOCK MATRIX                   from file  10536 offset           0 length                 496 to matrix element file.
 Write ENERGY-WEIGHTED DENSITY             from file  10571 offset           0 length                 496 to matrix element file.
 Write FRAGMENT DENSITY MATRICES           from file  10774 offset           0 length                 992 to matrix element file.
 Write FRAGMENT OPERATOR MATRICES          from file  10823 offset           0 length                6976 to matrix element file.
 Write ALPHA SCF DENSITY MATRIX            from file      0 offset           0 length                 496 to matrix element file.
 Write INTEGER PARAMETERS                  from file      0 offset           0 length                   2 to matrix element file.
 No 2e integrals to process.
 Perform NBO analysis...executing G16NBO...


 Natural Energy Decomposition Analysis (Summary):

                                                            Component
                    Energy(wfn)        Energy(wfn)          (kcal/mol)
 ------------------------------------------------------------------------------
 H2KO(+)        -104.6018650(scf)  -104.5989962(loc)      CT =   -1.800
                                                          ES =  -27.488
                                                         POL =  -12.376
                                                          XC =   -6.463
 1. K(+)         -28.1497175(def)   -28.1499579(rel) DEF(SE) =    0.151(  0.091)
 2. H2O          -76.3754513(def)   -76.4162267(rel) DEF(SE) =   25.587(  6.110)
                                                              ---------
                                                           E =  -22.390


 Electrical (ES+POL+SE) :    -33.664
   Charge Transfer (CT) :     -1.800
       Core (XC+DEF-SE) :     13.075
                        ------------
  Total Interaction (E) :    -22.390


 Dipole moments:

   1. K(+)
      Dipole (def):    0.0000(x),   0.0000(y),  -0.0289(z);   0.0289(tot) Debye
      Dipole (rel):    0.0000(x),   0.0000(y),  -0.0019(z);   0.0019(tot) Debye
      Dipole (ind):    0.0000(x),   0.0000(y),  -0.0270(z);   0.0270(tot) Debye
   2. H2O
      Dipole (def):    0.0000(x),   0.0000(y),  -2.8819(z);   2.8819(tot) Debye
      Dipole (rel):    0.0000(x),   0.0000(y),  -2.6047(z);   2.6047(tot) Debye
      Dipole (ind):    0.0000(x),   0.0000(y),  -0.2772(z);   0.2772(tot) Debye

 Opening RunExU unformatted file "/scr/ericg/h2ko+/Gau-15292.EUF"
 Read unf file /scr/ericg/h2ko+/Gau-15292.EUF:
 Label Gaussian matrix elements                                         IVers= 2 NLab= 2 Version=ES64L-G16RevC.01
 Title K(+)..OH2...b3lyp/sdd                                           
 NAtoms=     4 NBasis=    31 NBsUse=    31 ICharg=     1 Multip=     1 NE=    18 Len12L=8 Len4L=8 IOpCl= 0 ICGU=111
 GAUSSIAN SCALARS                    NI= 1 NR= 1 NTot=       1 LenBuf=    2 NRI=1 N=    1000
 Recovered energy= -76.4162267498     dipole=     -0.000000000000     -0.000000000000     14.887060955538
 Unable to Open any file for archive entry.
 1\1\GINC-NEUTRON\SP\RB3LYP\SDD\H2K1O1(1+)\ERICG\20-May-2020\0\\#b3lyp/
 sdd neda=2\\K(+)..OH2...b3lyp/sdd\\1,1\K,0,0.,0.,0.935574\O,0,0.,0.,-1
 .663657\H,0,0.,0.794762,-2.233325\H,0,0.,-0.794762,-2.233325\\Version=
 ES64L-G16RevC.01\State=1-A1\HF=-76.4162267\RMSD=1.613e-09\Dipole=0.,0.
 ,14.887061\Quadrupole=-12.7499742,-10.1841458,22.93412,0.,0.,0.\PG=C02
 V [C2(O1K1),SGV(H2)]\\@
 The archive entry for this job was punched.


 WISDOM IS KNOWING WHAT TO DO,
 SKILL IS KNOWING HOW TO DO IT,
 AND VIRTUE IS NOT DOING IT.
 Job cpu time:       0 days  0 hours  0 minutes 11.8 seconds.
 Elapsed time:       0 days  0 hours  0 minutes  3.1 seconds.
 File lengths (MBytes):  RWF=      6 Int=      0 D2E=      0 Chk=      1 Scr=      1
 Normal termination of Gaussian 16 at Wed May 20 10:15:12 2020.
