 Entering Gaussian System, Link 0=g16
 Input=b.11.3.4a.com
 Output=b.11.3.4a.log
 Initial command:
 /cm/shared/nfsapps/gaussian/g16/l1.exe "/storage/home/misab/scratch/132639.master/Gau-28149.inp" -scrdir="/storage/home/misab/scratch/132639.master/"
 Entering Link 1 = /cm/shared/nfsapps/gaussian/g16/l1.exe PID=     28150.
  
 Copyright (c) 1988-2019, Gaussian, Inc.  All Rights Reserved.
  
 This is part of the Gaussian(R) 16 program.  It is based on
 the Gaussian(R) 09 system (copyright 2009, Gaussian, Inc.),
 the Gaussian(R) 03 system (copyright 2003, Gaussian, Inc.),
 the Gaussian(R) 98 system (copyright 1998, Gaussian, Inc.),
 the Gaussian(R) 94 system (copyright 1995, Gaussian, Inc.),
 the Gaussian 92(TM) system (copyright 1992, Gaussian, Inc.),
 the Gaussian 90(TM) system (copyright 1990, Gaussian, Inc.),
 the Gaussian 88(TM) system (copyright 1988, Gaussian, Inc.),
 the Gaussian 86(TM) system (copyright 1986, Carnegie Mellon
 University), and the Gaussian 82(TM) system (copyright 1983,
 Carnegie Mellon University). Gaussian is a federally registered
 trademark of Gaussian, Inc.
  
 This software contains proprietary and confidential information,
 including trade secrets, belonging to Gaussian, Inc.
  
 This software is provided under written license and may be
 used, copied, transmitted, or stored only in accord with that
 written license.
  
 The following legend is applicable only to US Government
 contracts under FAR:
  
                    RESTRICTED RIGHTS LEGEND
  
 Use, reproduction and disclosure by the US Government is
 subject to restrictions as set forth in subparagraphs (a)
 and (c) of the Commercial Computer Software - Restricted
 Rights clause in FAR 52.227-19.
  
 Gaussian, Inc.
 340 Quinnipiac St., Bldg. 40, Wallingford CT 06492
  
  
 ---------------------------------------------------------------
 Warning -- This program may not be used in any manner that
 competes with the business of Gaussian, Inc. or will provide
 assistance to any competitor of Gaussian, Inc.  The licensee
 of this program is prohibited from giving any competitor of
 Gaussian, Inc. access to this program.  By using this program,
 the user acknowledges that Gaussian, Inc. is engaged in the
 business of creating and licensing software in the field of
 computational chemistry and represents and warrants to the
 licensee that it is not a competitor of Gaussian, Inc. and that
 it will not use this program in any manner prohibited above.
 ---------------------------------------------------------------
  

 Cite this work as:
 Gaussian 16, Revision C.01,
 M. J. Frisch, G. W. Trucks, H. B. Schlegel, G. E. Scuseria, 
 M. A. Robb, J. R. Cheeseman, G. Scalmani, V. Barone, 
 G. A. Petersson, H. Nakatsuji, X. Li, M. Caricato, A. V. Marenich, 
 J. Bloino, B. G. Janesko, R. Gomperts, B. Mennucci, H. P. Hratchian, 
 J. V. Ortiz, A. F. Izmaylov, J. L. Sonnenberg, D. Williams-Young, 
 F. Ding, F. Lipparini, F. Egidi, J. Goings, B. Peng, A. Petrone, 
 T. Henderson, D. Ranasinghe, V. G. Zakrzewski, J. Gao, N. Rega, 
 G. Zheng, W. Liang, M. Hada, M. Ehara, K. Toyota, R. Fukuda, 
 J. Hasegawa, M. Ishida, T. Nakajima, Y. Honda, O. Kitao, H. Nakai, 
 T. Vreven, K. Throssell, J. A. Montgomery, Jr., J. E. Peralta, 
 F. Ogliaro, M. J. Bearpark, J. J. Heyd, E. N. Brothers, K. N. Kudin, 
 V. N. Staroverov, T. A. Keith, R. Kobayashi, J. Normand, 
 K. Raghavachari, A. P. Rendell, J. C. Burant, S. S. Iyengar, 
 J. Tomasi, M. Cossi, J. M. Millam, M. Klene, C. Adamo, R. Cammi, 
 J. W. Ochterski, R. L. Martin, K. Morokuma, O. Farkas, 
 J. B. Foresman, and D. J. Fox, Gaussian, Inc., Wallingford CT, 2019.
 
 ******************************************
 Gaussian 16:  ES64L-G16RevC.01  3-Jul-2019
                22-Dec-2022 
 ******************************************
 --------------------------
 # b3lyp/aug-cc-pvtz neda=3
 --------------------------
 1/38=1,62=3,160=70,172=1/1;
 2/12=2,17=6,18=5,40=1/2;
 1/38=1,53=2,62=3,63=1,160=70/22;
 3/5=16,6=1,7=10,11=2,25=1,30=1,74=-5/1,2,3;
 4//1;
 5/5=2,38=5/2;
 6/7=2,8=2,9=2,10=2,28=1,40=111,113=1,114=1,124=2103/1,12(1);
 99/5=1,9=1/99;
 5/5=2,7=1,13=1,38=1,48=100000/2;
 6/7=2,8=2,9=2,10=2,28=1,40=203,113=1,114=1,124=2103/12(-1);
 1/53=2,62=3,63=1,160=70/22;
 3/5=7,6=11,7=10,11=2,25=1,30=1,74=-5,82=7/1,2,3;
 4/5=19/1;
 5/5=2,38=1,48=100000,185=1/2;
 1/53=2,62=3,63=1,160=70/22(-3);
 2//2;
 6/7=2,8=2,9=2,10=2,19=2,28=1,40=301,113=1,114=1,124=2103/1,12;
 99/5=1,9=1/99;
 ----------------------------
 C3 water trimer...b3lyp/avtz
 ----------------------------
 Symbolic Z-matrix:
 Charge =  0 Multiplicity = 1 in supermolecule
 Charge =  0 Multiplicity = 1 in fragment      1.
 Charge =  0 Multiplicity = 1 in fragment      2.
 Charge =  0 Multiplicity = 1 in fragment      3.
 O                    -0.95741   1.30438  -0.09187    
 H                     0.01417   1.24427  -0.03794    
 H                    -1.22539   1.97501   0.54138    
 O                     1.60834   0.17699  -0.09195    
 H                     1.07053  -0.63439  -0.03811    
 H                     2.32295   0.07383   0.54151    
 O                    -0.65093  -1.48138  -0.09194    
 H                    -1.08474  -0.60996  -0.03799    
 H                    -1.09753  -2.04876   0.54147    
 
                          Input orientation:                          
 ---------------------------------------------------------------------
 Center     Atomic      Atomic             Coordinates (Angstroms)
 Number     Number       Type             X           Y           Z
 ---------------------------------------------------------------------
      1          8           0       -0.957406    1.304375   -0.091870
      2          1           0        0.014172    1.244266   -0.037940
      3          1           0       -1.225393    1.975012    0.541376
      4          8           0        1.608343    0.176994   -0.091952
      5          1           0        1.070533   -0.634390   -0.038105
      6          1           0        2.322945    0.073834    0.541511
      7          8           0       -0.650927   -1.481377   -0.091938
      8          1           0       -1.084742   -0.609957   -0.037991
      9          1           0       -1.097527   -2.048758    0.541465
 ---------------------------------------------------------------------
                    Distance matrix (angstroms):
                    1          2          3          4          5
     1  O    0.000000
     2  H    0.974928   0.000000
     3  H    0.960506   1.551167   0.000000
     4  O    2.802509   1.919210   3.415265   0.000000
     5  H    2.806107   2.155283   3.523642   0.974927   0.000000
     6  H    3.560352   2.652566   4.025566   0.960507   1.551152
     7  O    2.802560   2.806137   3.560579   2.802587   1.919299
     8  H    1.919319   2.155401   2.652831   2.806227   2.155413
     9  H    3.415296   3.523577   4.025801   3.560466   2.652701
                    6          7          8          9
     6  H    0.000000
     7  O    3.415238   0.000000
     8  H    3.523595   0.974925   0.000000
     9  H    4.025547   0.960506   1.551155   0.000000
 Stoichiometry    H6O3
 Framework group  C1[X(H6O3)]
 Deg. of freedom    21
 Full point group                 C1      NOp   1
 Largest Abelian subgroup         C1      NOp   1
 Largest concise Abelian subgroup C1      NOp   1
                         Standard orientation:                         
 ---------------------------------------------------------------------
 Center     Atomic      Atomic             Coordinates (Angstroms)
 Number     Number       Type             X           Y           Z
 ---------------------------------------------------------------------
      1          8           0       -0.816032   -1.397183   -0.068678
      2          1           0       -1.147273   -0.481839   -0.014748
      3          1           0       -1.324776   -1.909775    0.564568
      4          8           0       -0.802026    1.405290   -0.068760
      5          1           0        0.156317    1.234524   -0.014913
      6          1           0       -0.991569    2.101977    0.564703
      7          8           0        1.618059   -0.008103   -0.068746
      8          1           0        0.991042   -0.752696   -0.014799
      9          1           0        2.316252   -0.192222    0.564657
 ---------------------------------------------------------------------
 Rotational constants (GHZ):           6.7871581           6.7867246           3.4463137
 NEDA: doing full-system calculation.
 Standard basis: Aug-CC-pVTZ (5D, 7F)
 There are   315 symmetry adapted cartesian basis functions of A   symmetry.
 There are   276 symmetry adapted basis functions of A   symmetry.
   276 basis functions,   378 primitive gaussians,   315 cartesian basis functions
    15 alpha electrons       15 beta electrons
       nuclear repulsion energy        84.1348372321 Hartrees.
 NAtoms=    9 NActive=    9 NUniq=    9 SFac= 1.00D+00 NAtFMM=   60 NAOKFM=F Big=F
 Integral buffers will be    131072 words long.
 Raffenetti 2 integral format.
 Two-electron integral symmetry is turned on.
 One-electron integrals computed using PRISM.
 NBasis=   276 RedAO= T EigKep=  1.55D-04  NBF=   276
 NBsUse=   276 1.00D-06 EigRej= -1.00D+00 NBFU=   276
 ExpMin= 2.53D-02 ExpMax= 1.53D+04 ExpMxC= 5.22D+02 IAcc=3 IRadAn=         5 AccDes= 0.00D+00
 Harris functional with IExCor=  402 and IRadAn=       5 diagonalized for initial guess.
 HarFok:  IExCor=  402 AccDes= 0.00D+00 IRadAn=         5 IDoV= 1 UseB2=F ITyADJ=14
 ICtDFT=  3500011 ScaDFX=  1.000000  1.000000  1.000000  1.000000
 FoFCou: FMM=F IPFlag=           0 FMFlag=      100000 FMFlg1=           0
         NFxFlg=           0 DoJE=T BraDBF=F KetDBF=T FulRan=T
         wScrn=  0.000000 ICntrl=       500 IOpCl=  0 I1Cent=   200000004 NGrid=           0
         NMat0=    1 NMatS0=      1 NMatT0=    0 NMatD0=    1 NMtDS0=    0 NMtDT0=    0
 Petite list used in FoFCou.
 Requested convergence on RMS density matrix=1.00D-08 within 128 cycles.
 Requested convergence on MAX density matrix=1.00D-06.
 Requested convergence on             energy=1.00D-06.
 No special actions if energy rises.
 SCF Done:  E(RB3LYP) =  -229.420164176     A.U. after    9 cycles
            NFock=  9  Conv=0.43D-08     -V/T= 2.0060

 **********************************************************************

            Population analysis using the SCF Density.

 **********************************************************************

 Orbital symmetries:
       Occupied  (A) (A) (A) (A) (A) (A) (A) (A) (A) (A) (A) (A)
                 (A) (A) (A)
       Virtual   (A) (A) (A) (A) (A) (A) (A) (A) (A) (A) (A) (A)
                 (A) (A) (A) (A) (A) (A) (A) (A) (A) (A) (A) (A)
                 (A) (A) (A) (A) (A) (A) (A) (A) (A) (A) (A) (A)
                 (A) (A) (A) (A) (A) (A) (A) (A) (A) (A) (A) (A)
                 (A) (A) (A) (A) (A) (A) (A) (A) (A) (A) (A) (A)
                 (A) (A) (A) (A) (A) (A) (A) (A) (A) (A) (A) (A)
                 (A) (A) (A) (A) (A) (A) (A) (A) (A) (A) (A) (A)
                 (A) (A) (A) (A) (A) (A) (A) (A) (A) (A) (A) (A)
                 (A) (A) (A) (A) (A) (A) (A) (A) (A) (A) (A) (A)
                 (A) (A) (A) (A) (A) (A) (A) (A) (A) (A) (A) (A)
                 (A) (A) (A) (A) (A) (A) (A) (A) (A) (A) (A) (A)
                 (A) (A) (A) (A) (A) (A) (A) (A) (A) (A) (A) (A)
                 (A) (A) (A) (A) (A) (A) (A) (A) (A) (A) (A) (A)
                 (A) (A) (A) (A) (A) (A) (A) (A) (A) (A) (A) (A)
                 (A) (A) (A) (A) (A) (A) (A) (A) (A) (A) (A) (A)
                 (A) (A) (A) (A) (A) (A) (A) (A) (A) (A) (A) (A)
                 (A) (A) (A) (A) (A) (A) (A) (A) (A) (A) (A) (A)
                 (A) (A) (A) (A) (A) (A) (A) (A) (A) (A) (A) (A)
                 (A) (A) (A) (A) (A) (A) (A) (A) (A) (A) (A) (A)
                 (A) (A) (A) (A) (A) (A) (A) (A) (A) (A) (A) (A)
                 (A) (A) (A) (A) (A) (A) (A) (A) (A) (A) (A) (A)
                 (A) (A) (A) (A) (A) (A) (A) (A) (A)
 The electronic state is 1-A.
 Alpha  occ. eigenvalues --  -19.13574 -19.13574 -19.13573  -1.02714  -1.01146
 Alpha  occ. eigenvalues --   -1.01146  -0.56120  -0.53014  -0.53013  -0.40887
 Alpha  occ. eigenvalues --   -0.40887  -0.38411  -0.33562  -0.31913  -0.31913
 Alpha virt. eigenvalues --   -0.02933  -0.00064  -0.00064   0.04101   0.04357
 Alpha virt. eigenvalues --    0.04357   0.07078   0.08948   0.08949   0.09156
 Alpha virt. eigenvalues --    0.10271   0.10271   0.13874   0.14546   0.15143
 Alpha virt. eigenvalues --    0.15143   0.15465   0.17796   0.17796   0.19320
 Alpha virt. eigenvalues --    0.19320   0.20830   0.22886   0.22887   0.26508
 Alpha virt. eigenvalues --    0.27552   0.27553   0.27554   0.30640   0.32306
 Alpha virt. eigenvalues --    0.32306   0.33517   0.33518   0.33785   0.36188
 Alpha virt. eigenvalues --    0.36432   0.36433   0.38673   0.38674   0.43271
 Alpha virt. eigenvalues --    0.45912   0.45913   0.46699   0.51220   0.51222
 Alpha virt. eigenvalues --    0.53582   0.55903   0.55905   0.62092   0.62745
 Alpha virt. eigenvalues --    0.62746   0.64050   0.66622   0.66742   0.66742
 Alpha virt. eigenvalues --    0.69404   0.71737   0.71739   0.77127   0.78101
 Alpha virt. eigenvalues --    0.78102   0.78689   0.80978   0.80982   0.81236
 Alpha virt. eigenvalues --    0.83199   0.83697   0.83698   0.86000   0.86001
 Alpha virt. eigenvalues --    0.88033   0.89742   0.90223   0.90225   0.90680
 Alpha virt. eigenvalues --    0.90680   0.95263   0.97501   0.97503   0.99018
 Alpha virt. eigenvalues --    1.01886   1.01889   1.05885   1.05886   1.08257
 Alpha virt. eigenvalues --    1.13345   1.13955   1.13956   1.14918   1.14920
 Alpha virt. eigenvalues --    1.18292   1.18389   1.18393   1.25167   1.27092
 Alpha virt. eigenvalues --    1.27094   1.30655   1.30658   1.33195   1.36287
 Alpha virt. eigenvalues --    1.40394   1.40395   1.42932   1.47491   1.47491
 Alpha virt. eigenvalues --    1.52926   1.52928   1.60314   1.60703   1.60706
 Alpha virt. eigenvalues --    1.61498   1.67911   1.71454   1.72630   1.72633
 Alpha virt. eigenvalues --    1.74964   1.74967   1.84851   1.84856   1.87855
 Alpha virt. eigenvalues --    1.98928   2.09018   2.09425   2.09427   2.16575
 Alpha virt. eigenvalues --    2.16577   2.17490   2.17491   2.21335   2.22956
 Alpha virt. eigenvalues --    2.22959   2.24145   2.24733   2.24733   2.28173
 Alpha virt. eigenvalues --    2.32260   2.32266   2.35069   2.41072   2.41075
 Alpha virt. eigenvalues --    2.44277   2.44281   2.45402   2.53493   2.55232
 Alpha virt. eigenvalues --    2.55234   2.58345   2.62145   2.62146   2.62253
 Alpha virt. eigenvalues --    2.66598   2.67975   2.68239   2.68245   2.75841
 Alpha virt. eigenvalues --    2.75845   2.82295   2.94670   2.94674   3.51261
 Alpha virt. eigenvalues --    3.51263   3.54671   3.69651   3.70945   3.70951
 Alpha virt. eigenvalues --    3.78214   3.78215   3.86424   3.93516   3.93520
 Alpha virt. eigenvalues --    3.94306   3.97282   3.97282   3.98572   4.02807
 Alpha virt. eigenvalues --    4.05783   4.05786   4.14812   4.14817   4.14820
 Alpha virt. eigenvalues --    4.19407   4.19410   4.21001   4.25283   4.29027
 Alpha virt. eigenvalues --    4.29031   4.33929   4.33931   4.37136   4.39570
 Alpha virt. eigenvalues --    4.43980   4.43986   4.48831   4.55935   4.55942
 Alpha virt. eigenvalues --    4.62194   4.67022   4.67026   4.81625   4.83920
 Alpha virt. eigenvalues --    4.83921   4.92326   4.92502   4.92508   4.97285
 Alpha virt. eigenvalues --    5.00752   5.01094   5.01101   5.10283   5.10286
 Alpha virt. eigenvalues --    5.17771   5.17777   5.25665   5.40487   5.44529
 Alpha virt. eigenvalues --    5.44530   5.84839   5.84843   5.93034   6.13743
 Alpha virt. eigenvalues --    6.13744   6.19789   6.38839   6.39258   6.39259
 Alpha virt. eigenvalues --    6.48128   6.50350   6.50352   6.67333   6.74231
 Alpha virt. eigenvalues --    6.74235   6.83756   6.83758   6.85266   6.88392
 Alpha virt. eigenvalues --    6.88395   6.88909   6.88911   6.88934   6.91085
 Alpha virt. eigenvalues --    6.95153   6.97262   6.98917   6.98918   7.07323
 Alpha virt. eigenvalues --    7.07325   7.29456   7.29460   7.39354   7.49402
 Alpha virt. eigenvalues --    7.49406   7.52159   7.60333   7.61327   7.61332
 Alpha virt. eigenvalues --    8.36705   8.36707   8.38841  15.56763  15.72677
 Alpha virt. eigenvalues --   15.72709
          Condensed to atoms (all electrons):
               1          2          3          4          5          6
     1  O    8.037672   0.204632   0.240043  -0.027108   0.007626   0.002048
     2  H    0.204632   0.508183   0.016280  -0.011596   0.001118  -0.000296
     3  H    0.240043   0.016280   0.597272  -0.002104  -0.001606  -0.000606
     4  O   -0.027108  -0.011596  -0.002104   8.037696   0.204612   0.240035
     5  H    0.007626   0.001118  -0.001606   0.204612   0.508196   0.016296
     6  H    0.002048  -0.000296  -0.000606   0.240035   0.016296   0.597245
     7  O   -0.027101   0.007629   0.002049  -0.027108  -0.011593  -0.002101
     8  H   -0.011587   0.001115  -0.000300   0.007633   0.001117  -0.001607
     9  H   -0.002099  -0.001607  -0.000607   0.002049  -0.000298  -0.000607
               7          8          9
     1  O   -0.027101  -0.011587  -0.002099
     2  H    0.007629   0.001115  -0.001607
     3  H    0.002049  -0.000300  -0.000607
     4  O   -0.027108   0.007633   0.002049
     5  H   -0.011593   0.001117  -0.000298
     6  H   -0.002101  -0.001607  -0.000607
     7  O    8.037665   0.204624   0.240042
     8  H    0.204624   0.508195   0.016296
     9  H    0.240042   0.016296   0.597243
 Mulliken charges:
               1
     1  O   -0.424125
     2  H    0.274540
     3  H    0.149579
     4  O   -0.424109
     5  H    0.274530
     6  H    0.149592
     7  O   -0.424107
     8  H    0.274514
     9  H    0.149587
 Sum of Mulliken charges =  -0.00000
 Mulliken charges with hydrogens summed into heavy atoms:
               1
     1  O   -0.000007
     4  O    0.000013
     7  O   -0.000006
         Mulliken charges condensed to fragments:
      1     -0.000007
      2      0.000013
      3     -0.000006
 Electronic spatial extent (au):  <R**2>=            342.9804
 Charge=             -0.0000 electrons
 Dipole moment (field-independent basis, Debye):
    X=              0.0000    Y=              0.0000    Z=              3.2354  Tot=              3.2354
 Quadrupole moment (field-independent basis, Debye-Ang):
   XX=            -16.8487   YY=            -16.8495   ZZ=            -20.5207
   XY=              0.0008   XZ=             -0.0000   YZ=              0.0007
 Traceless Quadrupole moment (field-independent basis, Debye-Ang):
   XX=              1.2242   YY=              1.2235   ZZ=             -2.4477
   XY=              0.0008   XZ=             -0.0000   YZ=              0.0007
 Octapole moment (field-independent basis, Debye-Ang**2):
  XXX=              5.2815  YYY=              4.3975  ZZZ=              2.0157  XYY=             -5.2824
  XXY=             -4.4011  XXZ=             10.9551  XZZ=              0.0002  YZZ=              0.0009
  YYZ=             10.9533  XYZ=             -0.0004
 Hexadecapole moment (field-independent basis, Debye-Ang**3):
 XXXX=           -155.7207 YYYY=           -155.7164 ZZZZ=            -23.3917 XXXY=              0.0053
 XXXZ=             12.4211 YYYX=              0.0056 YYYZ=              3.1083 ZZZX=              0.0010
 ZZZY=              0.0028 XXYY=            -51.9040 XXZZ=            -32.6065 YYZZ=            -32.6052
 XXYZ=             -3.1033 YYXZ=            -12.4197 ZZXY=             -0.0005
 N-N= 8.413483723211D+01 E-N=-7.103984302791D+02  KE= 2.280628362911D+02
 Running external command "gaunbo7 R"
         input file       "/storage/home/misab/scratch/132639.master/Gau-28150.EIn"
         output file      "/storage/home/misab/scratch/132639.master/Gau-28150.EOu"
         message file     "/storage/home/misab/scratch/132639.master/Gau-28150.EMs"
         fchk file        "/storage/home/misab/scratch/132639.master/Gau-28150.EFC"
         mat. el file     "/storage/home/misab/scratch/132639.master/Gau-28150.EUF"

 Writing WrtUnf unformatted file "/storage/home/misab/scratch/132639.master/Gau-28150.EUF"
 Gaussian matrix elements                                         Version   2 NLab=11 Len12L=8 Len4L=8
 Write SHELL TO ATOM MAP                   from file      0 offset           0 length                  96 to matrix element file.
 Write SHELL TYPES                         from file      0 offset           0 length                  96 to matrix element file.
 Write NUMBER OF PRIMITIVES PER SHELL      from file      0 offset           0 length                  96 to matrix element file.
 Write PRIMITIVE EXPONENTS                 from file      0 offset           0 length                 147 to matrix element file.
 Write CONTRACTION COEFFICIENTS            from file      0 offset           0 length                 147 to matrix element file.
 Write P(S=P) CONTRACTION COEFFICIENTS     from file      0 offset           0 length                 147 to matrix element file.
 Write COORDINATES OF EACH SHELL           from file      0 offset           0 length                 288 to matrix element file.
 Write BONDS PER ATOM                      from file      0 offset           0 length                   9 to matrix element file.
 Write BONDED ATOMS                        from file      0 offset           0 length                  12 to matrix element file.
 Write BOND TYPES                          from file      0 offset           0 length                  12 to matrix element file.
 Write ONIOM CHARGE/MULT                   from file      0 offset           0 length                  32 to matrix element file.
 Write ONIOM ATOM LAYERS                   from file      0 offset           0 length                   9 to matrix element file.
 Write ONIOM ATOM MODIFIERS                from file      0 offset           0 length                   9 to matrix element file.
 Write ONIOM ATOM TYPES                    from file      0 offset           0 length                   9 to matrix element file.
 Write ONIOM LINK ATOMS                    from file      0 offset           0 length                   9 to matrix element file.
 Write ONIOM LINK CHARGES                  from file      0 offset           0 length                   9 to matrix element file.
 Write ONIOM LINK DISTANCES                from file      0 offset           0 length                  36 to matrix element file.
 Write SYMINF INTS                         from file      0 offset           0 length                  26 to matrix element file.
 Write ROTTR TO SO                         from file      0 offset           0 length                  12 to matrix element file.
 Write GAUSSIAN SCALARS                    from file    501 offset           0 to matrix element file.
 Write OPTIMIZATION FLAGS                  from file      0 offset           0 length                   9 to matrix element file.
 Write INTEGER ISO                         from file      0 offset           0 length                   9 to matrix element file.
 Write INTEGER FRAGMENT                    from file      0 offset           0 length                   9 to matrix element file.
 Write INTEGER SPIN                        from file      0 offset           0 length                   9 to matrix element file.
 Write REAL ZEFFECTIVE                     from file      0 offset           0 length                   9 to matrix element file.
 Write REAL GFACTOR                        from file      0 offset           0 length                   9 to matrix element file.
 Write REAL ZNUCLEAR                       from file      0 offset           0 length                   9 to matrix element file.
 Write MULLIKEN CHARGES                    from file      0 offset           0 length                   9 to matrix element file.
 Write NUCLEAR GRADIENT                    from file  10584 offset           0 length                  27 to matrix element file.
 Array NUCLEAR FORCE CONSTANTS              on  file  10585 does not exist.
 Write ELECTRIC DIPOLE MOMENT              from file      0 offset           0 length                   3 to matrix element file.
 Write NON-ADIABATIC COUPLING              from file  10810 offset           0 length                  27 to matrix element file.
 Write ELECTRONS PER FRAGMENT              from file      0 offset           0 length                  12 to matrix element file.
 Write BASIS FUNCTIONS PER FRAGMENT        from file      0 offset           0 length                 112 to matrix element file.
 Write FINITE EM FIELD                     from file  10521 offset           0 length                  35 to matrix element file.
 Write OVERLAP                             from file  10514 offset           0 length               38226 to matrix element file.
 Write CORE HAMILTONIAN ALPHA              from file  10515 offset           0 length               38226 to matrix element file.
 Write CORE HAMILTONIAN BETA               from file  10515 offset       38226 length               38226 to matrix element file.
 Write KINETIC ENERGY                      from file  10516 offset           0 length               38226 to matrix element file.
 Write ORTHOGONAL BASIS                    from file  10685 offset           0 length               76176 to matrix element file.
 Write DIPOLE INTEGRALS                    from file  10518 offset           0 length              114678 to matrix element file.
 Array DIP VEL INTEGRALS                    on  file  10572 does not exist.
 Array R X DEL INTEGRALS                    on  file  10572 does not exist.
 Write ALPHA ORBITAL ENERGIES              from file      0 offset           0 length                 276 to matrix element file.
 Write ALPHA MO COEFFICIENTS               from file  10524 offset           0 length               76176 to matrix element file.
 Write ALPHA DENSITY MATRIX                from file      0 offset           0 length               38226 to matrix element file.
 Write ALPHA FOCK MATRIX                   from file  10536 offset           0 length               38226 to matrix element file.
 Write ENERGY-WEIGHTED DENSITY             from file  10571 offset           0 length               38226 to matrix element file.
 Write ALPHA SCF DENSITY MATRIX            from file      0 offset           0 length               38226 to matrix element file.
 Write INTEGER PARAMETERS                  from file      0 offset           0 length                   2 to matrix element file.
 No 2e integrals to process.
 Perform NBO analysis...executing G16NBO...

 *********************************** NBO 7.0 ***********************************
             N A T U R A L   A T O M I C   O R B I T A L   A N D
          N A T U R A L   B O N D   O R B I T A L   A N A L Y S I S
 ************************** Rositha  Kuniyil (I102318) *************************
  (c) Copyright 1996-2021 Board of Regents of the University of Wisconsin System
      on behalf of the Theoretical Chemistry Institute.  All rights reserved.

          Cite this program [NBO 7.0.10 (8-Feb-2021)] as:

          NBO 7.0.  E. D. Glendening, J. K. Badenhoop, A. E. Reed,
          J. E. Carpenter, J. A. Bohmann, C. M. Morales, P. Karafiloglou,
          C. R. Landis, and F. Weinhold, Theoretical Chemistry Institute,
          University of Wisconsin, Madison, WI (2018)


 Filename set to /storage/home/misab/scratch/132639.master/Gau-28150

 Job title: C3 water trimer...b3lyp/avtz


 NATURAL POPULATIONS:  Natural atomic orbital occupancies

  NAO Atom No lang   Type(AO)    Occupancy      Energy
 -------------------------------------------------------
   1    O  1  s      Cor( 1s)     2.00000     -19.13569
   2    O  1  s      Val( 2s)     1.74474      -0.78026
   3    O  1  s      Ryd( 4s)     0.00027       3.04787
   4    O  1  s      Ryd( 3s)     0.00005       2.95114
   5    O  1  s      Ryd( 5s)     0.00001       7.36373
   6    O  1  px     Val( 2p)     1.83405      -0.31457
   7    O  1  px     Ryd( 3p)     0.00122       1.02318
   8    O  1  px     Ryd( 5p)     0.00007       2.89528
   9    O  1  px     Ryd( 4p)     0.00001       1.84221
  10    O  1  py     Val( 2p)     1.55248      -0.29575
  11    O  1  py     Ryd( 3p)     0.00197       0.95188
  12    O  1  py     Ryd( 5p)     0.00005       2.71737
  13    O  1  py     Ryd( 4p)     0.00001       2.87467
  14    O  1  pz     Val( 2p)     1.82099      -0.30922
  15    O  1  pz     Ryd( 3p)     0.00084       0.80439
  16    O  1  pz     Ryd( 5p)     0.00011       2.40342
  17    O  1  pz     Ryd( 4p)     0.00001       2.35475
  18    O  1  dxy    Ryd( 3d)     0.00335       1.72172
  19    O  1  dxy    Ryd( 4d)     0.00001       2.03679
  20    O  1  dxy    Ryd( 5d)     0.00000       6.79353
  21    O  1  dxz    Ryd( 3d)     0.00472       1.60645
  22    O  1  dxz    Ryd( 4d)     0.00002       2.26018
  23    O  1  dxz    Ryd( 5d)     0.00000       6.74777
  24    O  1  dyz    Ryd( 3d)     0.00283       1.51003
  25    O  1  dyz    Ryd( 4d)     0.00001       1.80508
  26    O  1  dyz    Ryd( 5d)     0.00000       6.92461
  27    O  1  dx2y2  Ryd( 3d)     0.00215       1.78468
  28    O  1  dx2y2  Ryd( 4d)     0.00001       2.25094
  29    O  1  dx2y2  Ryd( 5d)     0.00000       6.68168
  30    O  1  dz2    Ryd( 3d)     0.00381       1.53162
  31    O  1  dz2    Ryd( 4d)     0.00004       1.85991
  32    O  1  dz2    Ryd( 5d)     0.00000       6.84395
  33    O  1  f(0)   Ryd( 4f)     0.00014       2.69910
  34    O  1  f(0)   Ryd( 5f)     0.00000       6.08142
  35    O  1  f(c1)  Ryd( 4f)     0.00027       2.75467
  36    O  1  f(c1)  Ryd( 5f)     0.00000       6.18290
  37    O  1  f(s1)  Ryd( 4f)     0.00028       3.02404
  38    O  1  f(s1)  Ryd( 5f)     0.00000       6.48534
  39    O  1  f(c2)  Ryd( 4f)     0.00022       2.76138
  40    O  1  f(c2)  Ryd( 5f)     0.00000       6.10639
  41    O  1  f(s2)  Ryd( 4f)     0.00021       3.08190
  42    O  1  f(s2)  Ryd( 5f)     0.00000       6.24309
  43    O  1  f(c3)  Ryd( 4f)     0.00011       3.20238
  44    O  1  f(c3)  Ryd( 5f)     0.00000       6.58851
  45    O  1  f(s3)  Ryd( 4f)     0.00006       2.94139
  46    O  1  f(s3)  Ryd( 5f)     0.00000       6.33165

  47    H  2  s      Val( 1s)     0.49200       0.15905
  48    H  2  s      Ryd( 4s)     0.00102       1.83359
  49    H  2  s      Ryd( 3s)     0.00013       1.40116
  50    H  2  s      Ryd( 2s)     0.00004       0.84251
  51    H  2  px     Ryd( 2p)     0.00051       1.00693
  52    H  2  px     Ryd( 4p)     0.00019       3.68904
  53    H  2  px     Ryd( 3p)     0.00002       2.75766
  54    H  2  py     Ryd( 2p)     0.00012       1.72270
  55    H  2  py     Ryd( 4p)     0.00032       4.24297
  56    H  2  py     Ryd( 3p)     0.00007       2.97255
  57    H  2  pz     Ryd( 2p)     0.00077       0.98974
  58    H  2  pz     Ryd( 4p)     0.00019       3.56035
  59    H  2  pz     Ryd( 3p)     0.00002       2.55310
  60    H  2  dxy    Ryd( 3d)     0.00030       1.62344
  61    H  2  dxy    Ryd( 4d)     0.00001       4.70149
  62    H  2  dxz    Ryd( 3d)     0.00038       1.03816
  63    H  2  dxz    Ryd( 4d)     0.00000       3.99316
  64    H  2  dyz    Ryd( 3d)     0.00040       1.43814
  65    H  2  dyz    Ryd( 4d)     0.00001       4.55767
  66    H  2  dx2y2  Ryd( 3d)     0.00034       1.86730
  67    H  2  dx2y2  Ryd( 4d)     0.00002       4.76472
  68    H  2  dz2    Ryd( 3d)     0.00029       1.30643
  69    H  2  dz2    Ryd( 4d)     0.00001       4.18984

  70    H  3  s      Val( 1s)     0.52445       0.14376
  71    H  3  s      Ryd( 4s)     0.00021       2.13598
  72    H  3  s      Ryd( 3s)     0.00006       1.18321
  73    H  3  s      Ryd( 2s)     0.00001       0.36155
  74    H  3  px     Ryd( 2p)     0.00056       1.37981
  75    H  3  px     Ryd( 4p)     0.00022       3.52477
  76    H  3  px     Ryd( 3p)     0.00002       2.63769
  77    H  3  py     Ryd( 2p)     0.00011       1.52565
  78    H  3  py     Ryd( 4p)     0.00017       3.56044
  79    H  3  py     Ryd( 3p)     0.00002       2.84510
  80    H  3  pz     Ryd( 2p)     0.00064       1.43298
  81    H  3  pz     Ryd( 4p)     0.00029       3.63869
  82    H  3  pz     Ryd( 3p)     0.00002       2.56886
  83    H  3  dxy    Ryd( 3d)     0.00011       1.10198
  84    H  3  dxy    Ryd( 4d)     0.00001       4.26979
  85    H  3  dxz    Ryd( 3d)     0.00028       1.12199
  86    H  3  dxz    Ryd( 4d)     0.00001       4.27594
  87    H  3  dyz    Ryd( 3d)     0.00012       1.15940
  88    H  3  dyz    Ryd( 4d)     0.00001       4.34680
  89    H  3  dx2y2  Ryd( 3d)     0.00009       1.02042
  90    H  3  dx2y2  Ryd( 4d)     0.00000       4.34572
  91    H  3  dz2    Ryd( 3d)     0.00033       0.98321
  92    H  3  dz2    Ryd( 4d)     0.00001       4.37512

  93    O  4  s      Cor( 1s)     2.00000     -19.13570
  94    O  4  s      Val( 2s)     1.74474      -0.78027
  95    O  4  s      Ryd( 4s)     0.00027       3.04780
  96    O  4  s      Ryd( 3s)     0.00005       2.94953
  97    O  4  s      Ryd( 5s)     0.00001       7.36594
  98    O  4  px     Val( 2p)     1.62837      -0.30318
  99    O  4  px     Ryd( 3p)     0.00159       0.90852
 100    O  4  px     Ryd( 5p)     0.00008       2.65696
 101    O  4  px     Ryd( 4p)     0.00001       2.78498
 102    O  4  py     Val( 2p)     1.75826      -0.30716
 103    O  4  py     Ryd( 3p)     0.00160       1.06635
 104    O  4  py     Ryd( 5p)     0.00004       2.95592
 105    O  4  py     Ryd( 4p)     0.00001       1.93163
 106    O  4  pz     Val( 2p)     1.82087      -0.30922
 107    O  4  pz     Ryd( 3p)     0.00085       0.80442
 108    O  4  pz     Ryd( 5p)     0.00011       2.40375
 109    O  4  pz     Ryd( 4p)     0.00001       2.35486
 110    O  4  dxy    Ryd( 3d)     0.00146       1.49516
 111    O  4  dxy    Ryd( 4d)     0.00001       2.09951
 112    O  4  dxy    Ryd( 5d)     0.00000       6.67054
 113    O  4  dxz    Ryd( 3d)     0.00279       1.26180
 114    O  4  dxz    Ryd( 4d)     0.00001       1.57249
 115    O  4  dxz    Ryd( 5d)     0.00000       6.76600
 116    O  4  dyz    Ryd( 3d)     0.00477       1.85463
 117    O  4  dyz    Ryd( 4d)     0.00002       2.49237
 118    O  4  dyz    Ryd( 5d)     0.00000       6.90682
 119    O  4  dx2y2  Ryd( 3d)     0.00403       2.01107
 120    O  4  dx2y2  Ryd( 4d)     0.00001       2.18768
 121    O  4  dx2y2  Ryd( 5d)     0.00000       6.80523
 122    O  4  dz2    Ryd( 3d)     0.00381       1.53173
 123    O  4  dz2    Ryd( 4d)     0.00004       1.85989
 124    O  4  dz2    Ryd( 5d)     0.00000       6.84383
 125    O  4  f(0)   Ryd( 4f)     0.00014       2.69916
 126    O  4  f(0)   Ryd( 5f)     0.00000       6.08117
 127    O  4  f(c1)  Ryd( 4f)     0.00008       2.94429
 128    O  4  f(c1)  Ryd( 5f)     0.00000       6.19493
 129    O  4  f(s1)  Ryd( 4f)     0.00046       2.83532
 130    O  4  f(s1)  Ryd( 5f)     0.00000       6.47358
 131    O  4  f(c2)  Ryd( 4f)     0.00026       3.02935
 132    O  4  f(c2)  Ryd( 5f)     0.00000       6.26247
 133    O  4  f(s2)  Ryd( 4f)     0.00017       2.81415
 134    O  4  f(s2)  Ryd( 5f)     0.00000       6.08660
 135    O  4  f(c3)  Ryd( 4f)     0.00011       3.20253
 136    O  4  f(c3)  Ryd( 5f)     0.00000       6.58834
 137    O  4  f(s3)  Ryd( 4f)     0.00006       2.94137
 138    O  4  f(s3)  Ryd( 5f)     0.00000       6.33130

 139    H  5  s      Val( 1s)     0.49200       0.15904
 140    H  5  s      Ryd( 4s)     0.00102       1.83358
 141    H  5  s      Ryd( 3s)     0.00013       1.40086
 142    H  5  s      Ryd( 2s)     0.00004       0.84264
 143    H  5  px     Ryd( 2p)     0.00019       1.55897
 144    H  5  px     Ryd( 4p)     0.00033       4.27673
 145    H  5  px     Ryd( 3p)     0.00007       2.90012
 146    H  5  py     Ryd( 2p)     0.00044       1.17001
 147    H  5  py     Ryd( 4p)     0.00018       3.65543
 148    H  5  py     Ryd( 3p)     0.00002       2.83027
 149    H  5  pz     Ryd( 2p)     0.00077       0.98956
 150    H  5  pz     Ryd( 4p)     0.00019       3.56046
 151    H  5  pz     Ryd( 3p)     0.00002       2.55327
 152    H  5  dxy    Ryd( 3d)     0.00039       1.72277
 153    H  5  dxy    Ryd( 4d)     0.00001       4.80533
 154    H  5  dxz    Ryd( 3d)     0.00046       1.29341
 155    H  5  dxz    Ryd( 4d)     0.00000       4.60329
 156    H  5  dyz    Ryd( 3d)     0.00032       1.18284
 157    H  5  dyz    Ryd( 4d)     0.00000       3.94755
 158    H  5  dx2y2  Ryd( 3d)     0.00025       1.76790
 159    H  5  dx2y2  Ryd( 4d)     0.00002       4.66069
 160    H  5  dz2    Ryd( 3d)     0.00029       1.30646
 161    H  5  dz2    Ryd( 4d)     0.00001       4.18977

 162    H  6  s      Val( 1s)     0.52445       0.14375
 163    H  6  s      Ryd( 4s)     0.00021       2.13598
 164    H  6  s      Ryd( 3s)     0.00006       1.18320
 165    H  6  s      Ryd( 2s)     0.00001       0.36138
 166    H  6  px     Ryd( 2p)     0.00018       1.41130
 167    H  6  px     Ryd( 4p)     0.00016       3.47499
 168    H  6  px     Ryd( 3p)     0.00002       2.80527
 169    H  6  py     Ryd( 2p)     0.00050       1.49442
 170    H  6  py     Ryd( 4p)     0.00022       3.60981
 171    H  6  py     Ryd( 3p)     0.00002       2.67715
 172    H  6  pz     Ryd( 2p)     0.00064       1.43331
 173    H  6  pz     Ryd( 4p)     0.00029       3.63875
 174    H  6  pz     Ryd( 3p)     0.00002       2.56866
 175    H  6  dxy    Ryd( 3d)     0.00009       1.03477
 176    H  6  dxy    Ryd( 4d)     0.00000       4.32726
 177    H  6  dxz    Ryd( 3d)     0.00012       1.00551
 178    H  6  dxz    Ryd( 4d)     0.00000       4.24223
 179    H  6  dyz    Ryd( 3d)     0.00028       1.27590
 180    H  6  dyz    Ryd( 4d)     0.00002       4.38075
 181    H  6  dx2y2  Ryd( 3d)     0.00011       1.08752
 182    H  6  dx2y2  Ryd( 4d)     0.00001       4.28796
 183    H  6  dz2    Ryd( 3d)     0.00033       0.98324
 184    H  6  dz2    Ryd( 4d)     0.00001       4.37528

 185    O  7  s      Cor( 1s)     2.00000     -19.13570
 186    O  7  s      Val( 2s)     1.74474      -0.78027
 187    O  7  s      Ryd( 4s)     0.00027       3.04790
 188    O  7  s      Ryd( 3s)     0.00005       2.95025
 189    O  7  s      Ryd( 5s)     0.00001       7.36487
 190    O  7  px     Val( 2p)     1.61746      -0.29774
 191    O  7  px     Ryd( 3p)     0.00197       1.03076
 192    O  7  px     Ryd( 5p)     0.00003       2.86714
 193    O  7  px     Ryd( 4p)     0.00000       2.44764
 194    O  7  py     Val( 2p)     1.76914      -0.31259
 195    O  7  py     Ryd( 3p)     0.00121       0.94417
 196    O  7  py     Ryd( 5p)     0.00009       2.74598
 197    O  7  py     Ryd( 4p)     0.00001       2.26875
 198    O  7  pz     Val( 2p)     1.82090      -0.30923
 199    O  7  pz     Ryd( 3p)     0.00084       0.80440
 200    O  7  pz     Ryd( 5p)     0.00011       2.40378
 201    O  7  pz     Ryd( 4p)     0.00001       2.35468
 202    O  7  dxy    Ryd( 3d)     0.00343       2.04254
 203    O  7  dxy    Ryd( 4d)     0.00001       2.29498
 204    O  7  dxy    Ryd( 5d)     0.00000       6.74905
 205    O  7  dxz    Ryd( 3d)     0.00382       1.80650
 206    O  7  dxz    Ryd( 4d)     0.00002       2.26511
 207    O  7  dxz    Ryd( 5d)     0.00000       6.99508
 208    O  7  dyz    Ryd( 3d)     0.00373       1.30998
 209    O  7  dyz    Ryd( 4d)     0.00001       1.79995
 210    O  7  dyz    Ryd( 5d)     0.00000       6.67747
 211    O  7  dx2y2  Ryd( 3d)     0.00206       1.46374
 212    O  7  dx2y2  Ryd( 4d)     0.00001       1.99247
 213    O  7  dx2y2  Ryd( 5d)     0.00000       6.72640
 214    O  7  dz2    Ryd( 3d)     0.00381       1.53168
 215    O  7  dz2    Ryd( 4d)     0.00004       1.85987
 216    O  7  dz2    Ryd( 5d)     0.00000       6.84378
 217    O  7  f(0)   Ryd( 4f)     0.00014       2.69915
 218    O  7  f(0)   Ryd( 5f)     0.00000       6.08127
 219    O  7  f(c1)  Ryd( 4f)     0.00047       2.96983
 220    O  7  f(c1)  Ryd( 5f)     0.00000       6.62477
 221    O  7  f(s1)  Ryd( 4f)     0.00008       2.80947
 222    O  7  f(s1)  Ryd( 5f)     0.00000       6.04361
 223    O  7  f(c2)  Ryd( 4f)     0.00017       2.97439
 224    O  7  f(c2)  Ryd( 5f)     0.00000       6.15505
 225    O  7  f(s2)  Ryd( 4f)     0.00027       2.86903
 226    O  7  f(s2)  Ryd( 5f)     0.00000       6.19412
 227    O  7  f(c3)  Ryd( 4f)     0.00011       3.20256
 228    O  7  f(c3)  Ryd( 5f)     0.00000       6.58845
 229    O  7  f(s3)  Ryd( 4f)     0.00006       2.94126
 230    O  7  f(s3)  Ryd( 5f)     0.00000       6.33133

 231    H  8  s      Val( 1s)     0.49200       0.15905
 232    H  8  s      Ryd( 4s)     0.00102       1.83357
 233    H  8  s      Ryd( 3s)     0.00013       1.40103
 234    H  8  s      Ryd( 2s)     0.00004       0.84263
 235    H  8  px     Ryd( 2p)     0.00025       1.52810
 236    H  8  px     Ryd( 4p)     0.00025       3.93229
 237    H  8  px     Ryd( 3p)     0.00004       2.93741
 238    H  8  py     Ryd( 2p)     0.00038       1.20149
 239    H  8  py     Ryd( 4p)     0.00026       3.99968
 240    H  8  py     Ryd( 3p)     0.00005       2.79240
 241    H  8  pz     Ryd( 2p)     0.00077       0.98982
 242    H  8  pz     Ryd( 4p)     0.00019       3.56036
 243    H  8  pz     Ryd( 3p)     0.00002       2.55300
 244    H  8  dxy    Ryd( 3d)     0.00027       1.88971
 245    H  8  dxy    Ryd( 4d)     0.00002       4.69228
 246    H  8  dxz    Ryd( 3d)     0.00033       1.38278
 247    H  8  dxz    Ryd( 4d)     0.00000       4.22978
 248    H  8  dyz    Ryd( 3d)     0.00045       1.09344
 249    H  8  dyz    Ryd( 4d)     0.00000       4.32109
 250    H  8  dx2y2  Ryd( 3d)     0.00037       1.60085
 251    H  8  dx2y2  Ryd( 4d)     0.00001       4.77379
 252    H  8  dz2    Ryd( 3d)     0.00029       1.30642
 253    H  8  dz2    Ryd( 4d)     0.00001       4.18979

 254    H  9  s      Val( 1s)     0.52445       0.14375
 255    H  9  s      Ryd( 4s)     0.00021       2.13598
 256    H  9  s      Ryd( 3s)     0.00006       1.18326
 257    H  9  s      Ryd( 2s)     0.00001       0.36140
 258    H  9  px     Ryd( 2p)     0.00027       1.56742
 259    H  9  px     Ryd( 4p)     0.00020       3.62768
 260    H  9  px     Ryd( 3p)     0.00002       2.78084
 261    H  9  py     Ryd( 2p)     0.00040       1.33839
 262    H  9  py     Ryd( 4p)     0.00018       3.45709
 263    H  9  py     Ryd( 3p)     0.00002       2.70168
 264    H  9  pz     Ryd( 2p)     0.00064       1.43331
 265    H  9  pz     Ryd( 4p)     0.00029       3.63866
 266    H  9  pz     Ryd( 3p)     0.00002       2.56873
 267    H  9  dxy    Ryd( 3d)     0.00010       1.04677
 268    H  9  dxy    Ryd( 4d)     0.00000       4.32596
 269    H  9  dxz    Ryd( 3d)     0.00019       1.29465
 270    H  9  dxz    Ryd( 4d)     0.00002       4.41615
 271    H  9  dyz    Ryd( 3d)     0.00021       0.98676
 272    H  9  dyz    Ryd( 4d)     0.00000       4.20673
 273    H  9  dx2y2  Ryd( 3d)     0.00010       1.07555
 274    H  9  dx2y2  Ryd( 4d)     0.00000       4.28932
 275    H  9  dz2    Ryd( 3d)     0.00033       0.98323
 276    H  9  dz2    Ryd( 4d)     0.00001       4.37522


 Summary of Natural Population Analysis:

                                     Natural Population
             Natural    ---------------------------------------------
  Atom No    Charge        Core      Valence    Rydberg      Total
 --------------------------------------------------------------------
    O  1   -0.97511      2.00000     6.95226    0.02285     8.97511
    H  2    0.50283      0.00000     0.49200    0.00516     0.49717
    H  3    0.47226      0.00000     0.52445    0.00328     0.52774
    O  4   -0.97509      2.00000     6.95224    0.02285     8.97509
    H  5    0.50284      0.00000     0.49200    0.00516     0.49716
    H  6    0.47226      0.00000     0.52445    0.00328     0.52774
    O  7   -0.97509      2.00000     6.95224    0.02285     8.97509
    H  8    0.50284      0.00000     0.49200    0.00516     0.49716
    H  9    0.47226      0.00000     0.52445    0.00328     0.52774
 ====================================================================
 * Total *  0.00000      5.99999    23.90611    0.09390    30.00000

                                 Natural Population
 ---------------------------------------------------------
   Core                       5.99999 ( 99.9998% of    6)
   Valence                   23.90611 ( 99.6088% of   24)
   Natural Minimal Basis     29.90610 ( 99.6870% of   30)
   Natural Rydberg Basis      0.09390 (  0.3130% of   30)
 ---------------------------------------------------------

    Atom No         Natural Electron Configuration
 ----------------------------------------------------------------------------
      O  1      [core]2s( 1.74)2p( 5.21)3d( 0.02)
      H  2            1s( 0.49)
      H  3            1s( 0.52)
      O  4      [core]2s( 1.74)2p( 5.21)3d( 0.02)
      H  5            1s( 0.49)
      H  6            1s( 0.52)
      O  7      [core]2s( 1.74)2p( 5.21)3d( 0.02)
      H  8            1s( 0.49)
      H  9            1s( 0.52)


 NATURAL BOND ORBITAL ANALYSIS:

 User-requested molecular units:
   1. <O1,H2,H3>
   2. <O4,H5,H6>
   3. <O7,H8,H9>

                            Occupancies       Lewis Structure    Low   High
         Max    Occ     -------------------  -----------------   occ   occ
  Cycle  Ctr   Thresh    Lewis   non-Lewis     CR  BD  nC  LP    (L)   (NL)
 ============================================================================
    1     2     1.90    29.92145   0.07855      3   6   0   6     0      0
    2     2     1.52    28.49574   1.50426      3   3   0   9     0      3
    3     2     1.90    29.92145   0.07855      3   6   0   6     0      0
 ----------------------------------------------------------------------------

 Structure accepted: No low occupancy Lewis orbitals

 -------------------------------------------------------
   Core                      5.99999 (100.000% of   6)
   Valence Lewis            23.92146 ( 99.673% of  24)
  ==================      =============================
   Total Lewis              29.92145 ( 99.738% of  30)
  -----------------------------------------------------
   Valence non-Lewis         0.05559 (  0.185% of  30)
   Rydberg non-Lewis         0.02296 (  0.077% of  30)
  ==================      =============================
   Total non-Lewis           0.07855 (  0.262% of  30)
 -------------------------------------------------------


     (Occupancy)   Bond orbital / Coefficients / Hybrids
 ------------------ Lewis ------------------------------------------------------
   1. (2.00000) CR ( 1) O  1            s(100.00%)
                                         1.0000  0.0000  0.0000  0.0000  0.0000
                                         0.0000  0.0000  0.0000  0.0000  0.0000
                                         0.0000  0.0000  0.0000  0.0000  0.0000
                                         0.0000  0.0000  0.0000  0.0000  0.0000
                                         0.0000  0.0000  0.0000  0.0000  0.0000
                                         0.0000  0.0000  0.0000  0.0000  0.0000
                                         0.0000  0.0000  0.0000  0.0000  0.0000
                                         0.0000  0.0000  0.0000  0.0000  0.0000
                                         0.0000  0.0000  0.0000  0.0000  0.0000
                                         0.0000
   2. (2.00000) CR ( 1) O  4            s(100.00%)
                                         1.0000  0.0000  0.0000  0.0000  0.0000
                                         0.0000  0.0000  0.0000  0.0000  0.0000
                                         0.0000  0.0000  0.0000  0.0000  0.0000
                                         0.0000  0.0000  0.0000  0.0000  0.0000
                                         0.0000  0.0000  0.0000  0.0000  0.0000
                                         0.0000  0.0000  0.0000  0.0000  0.0000
                                         0.0000  0.0000  0.0000  0.0000  0.0000
                                         0.0000  0.0000  0.0000  0.0000  0.0000
                                         0.0000  0.0000  0.0000  0.0000  0.0000
                                         0.0000
   3. (2.00000) CR ( 1) O  7            s(100.00%)
                                         1.0000  0.0000  0.0000  0.0000  0.0000
                                         0.0000  0.0000  0.0000  0.0000  0.0000
                                         0.0000  0.0000  0.0000  0.0000  0.0000
                                         0.0000  0.0000  0.0000  0.0000  0.0000
                                         0.0000  0.0000  0.0000  0.0000  0.0000
                                         0.0000  0.0000  0.0000  0.0000  0.0000
                                         0.0000  0.0000  0.0000  0.0000  0.0000
                                         0.0000  0.0000  0.0000  0.0000  0.0000
                                         0.0000  0.0000  0.0000  0.0000  0.0000
                                         0.0000
   4. (1.99762) LP ( 1) O  1            s( 27.12%)p 2.68( 72.69%)d 0.01(  0.18%)
                                                  f 0.00(  0.02%)
                                         0.0000  0.5207 -0.0039  0.0027  0.0008
                                        -0.0724 -0.0060  0.0019  0.0016 -0.3282
                                        -0.0034  0.0006 -0.0004 -0.7834 -0.0128
                                         0.0031 -0.0006  0.0092  0.0001 -0.0002
                                         0.0160  0.0004  0.0007 -0.0252  0.0003
                                         0.0010  0.0033  0.0010  0.0005 -0.0287
                                         0.0022  0.0004  0.0019 -0.0001  0.0081
                                         0.0000  0.0066  0.0001  0.0030  0.0002
                                         0.0051  0.0000  0.0037 -0.0002  0.0006
                                         0.0000
   5. (1.97967) LP ( 2) O  1            s( 23.03%)p 3.33( 76.82%)d 0.01(  0.13%)
                                                  f 0.00(  0.02%)
                                         0.0000  0.4799  0.0084  0.0003  0.0000
                                         0.8405  0.0228  0.0002  0.0002 -0.0146
                                         0.0046  0.0017 -0.0009  0.2467  0.0059
                                         0.0033 -0.0007  0.0153 -0.0002 -0.0007
                                         0.0158 -0.0026  0.0002  0.0008 -0.0007
                                         0.0005 -0.0216 -0.0011 -0.0001  0.0179
                                         0.0001  0.0006  0.0027  0.0001 -0.0073
                                         0.0005 -0.0054  0.0003 -0.0086  0.0000
                                        -0.0038 -0.0001 -0.0026 -0.0004  0.0001
                                        -0.0002
   6. (1.99762) LP ( 1) O  4            s( 27.13%)p 2.68( 72.67%)d 0.01(  0.18%)
                                                  f 0.00(  0.02%)
                                         0.0000  0.5208 -0.0039  0.0027  0.0008
                                        -0.2482  0.0001  0.0015 -0.0011  0.2268
                                         0.0069 -0.0014 -0.0012 -0.7832 -0.0128
                                         0.0031 -0.0006 -0.0017  0.0008  0.0005
                                        -0.0298  0.0000  0.0005 -0.0012 -0.0005
                                        -0.0011 -0.0096 -0.0006 -0.0001 -0.0287
                                         0.0022  0.0004  0.0018 -0.0001  0.0016
                                         0.0001 -0.0103 -0.0001 -0.0059 -0.0001
                                         0.0000  0.0002  0.0037 -0.0002  0.0006
                                         0.0000
   7. (1.97966) LP ( 2) O  4            s( 23.02%)p 3.34( 76.83%)d 0.01(  0.13%)
                                                  f 0.00(  0.02%)
                                         0.0000  0.4798  0.0084  0.0003  0.0000
                                        -0.4328 -0.0074  0.0016 -0.0009 -0.7208
                                        -0.0220  0.0007  0.0003  0.2467  0.0059
                                         0.0033 -0.0007 -0.0264 -0.0009  0.0002
                                        -0.0072  0.0007  0.0003 -0.0141  0.0026
                                        -0.0004 -0.0024  0.0007  0.0006  0.0179
                                         0.0001  0.0006  0.0027  0.0001 -0.0011
                                         0.0000  0.0091 -0.0006  0.0076  0.0001
                                        -0.0056  0.0001 -0.0026 -0.0004  0.0001
                                        -0.0002
   8. (1.99762) LP ( 1) O  7            s( 27.12%)p 2.68( 72.68%)d 0.01(  0.18%)
                                                  f 0.00(  0.02%)
                                         0.0000  0.5208 -0.0039  0.0027  0.0008
                                         0.3205  0.0059 -0.0004 -0.0005  0.1014
                                        -0.0036 -0.0020  0.0015 -0.7833 -0.0128
                                         0.0031 -0.0006 -0.0075 -0.0010 -0.0003
                                         0.0138 -0.0004 -0.0012  0.0264  0.0002
                                         0.0001  0.0063 -0.0004 -0.0004 -0.0287
                                         0.0022  0.0004  0.0018 -0.0001 -0.0097
                                        -0.0001  0.0037  0.0000  0.0029 -0.0001
                                        -0.0051 -0.0002  0.0037 -0.0002  0.0006
                                         0.0000
   9. (1.97967) LP ( 2) O  7            s( 23.03%)p 3.34( 76.82%)d 0.01(  0.13%)
                                                  f 0.00(  0.02%)
                                         0.0000  0.4798  0.0084  0.0003  0.0000
                                        -0.4078 -0.0154  0.0014  0.0007  0.7352
                                         0.0174 -0.0010  0.0006  0.2466  0.0059
                                         0.0033 -0.0007  0.0111  0.0011  0.0004
                                        -0.0086  0.0019 -0.0005  0.0133 -0.0019
                                        -0.0001  0.0240  0.0004 -0.0005  0.0179
                                         0.0001  0.0006  0.0027  0.0001  0.0084
                                        -0.0005 -0.0036  0.0003  0.0010 -0.0001
                                         0.0094  0.0001 -0.0026 -0.0004  0.0001
                                        -0.0002
  10. (1.99863) BD ( 1) O  1- H  2
               ( 76.04%)   0.8720* O  1 s( 26.39%)p 2.78( 73.25%)d 0.01(  0.34%)
                                                  f 0.00(  0.02%)
                                         0.0000  0.5137  0.0003 -0.0006 -0.0010
                                        -0.2872  0.0034  0.0052 -0.0003  0.8052
                                        -0.0260  0.0026 -0.0004  0.0301  0.0061
                                         0.0051  0.0002 -0.0381 -0.0010 -0.0001
                                        -0.0158 -0.0003  0.0002  0.0188 -0.0021
                                         0.0002 -0.0257 -0.0012  0.0002 -0.0266
                                        -0.0027  0.0003 -0.0004  0.0002 -0.0006
                                        -0.0005 -0.0083 -0.0001  0.0057  0.0002
                                        -0.0021  0.0007  0.0047  0.0001 -0.0059
                                        -0.0004
               ( 23.96%)   0.4895* H  2 s( 99.89%)p 0.00(  0.08%)d 0.00(  0.03%)
                                         0.9994 -0.0037  0.0001 -0.0002 -0.0064
                                         0.0097  0.0044 -0.0034 -0.0209 -0.0095
                                         0.0108 -0.0051 -0.0022 -0.0066 -0.0036
                                        -0.0076 -0.0004 -0.0057  0.0006 -0.0024
                                        -0.0035 -0.0093 -0.0033
  11. (1.99791) BD ( 1) O  1- H  3
               ( 73.73%)   0.8587* O  1 s( 23.35%)p 3.27( 76.26%)d 0.02(  0.37%)
                                                  f 0.00(  0.02%)
                                         0.0000  0.4832 -0.0060 -0.0038 -0.0002
                                        -0.4502  0.0017  0.0011  0.0007 -0.4878
                                         0.0236  0.0039 -0.0002  0.5667 -0.0151
                                         0.0000 -0.0001  0.0177  0.0009  0.0004
                                        -0.0474 -0.0005 -0.0004 -0.0261 -0.0011
                                        -0.0003  0.0099  0.0000 -0.0001  0.0175
                                        -0.0031  0.0003 -0.0089 -0.0001 -0.0044
                                         0.0004 -0.0044 -0.0003 -0.0018 -0.0004
                                         0.0090 -0.0004  0.0048  0.0007  0.0000
                                         0.0002
               ( 26.27%)   0.5125* H  3 s( 99.84%)p 0.00(  0.12%)d 0.00(  0.04%)
                                         0.9992 -0.0001  0.0000  0.0000 -0.0112
                                        -0.0153  0.0026  0.0002 -0.0111  0.0033
                                         0.0166  0.0201 -0.0026  0.0080  0.0035
                                        -0.0124 -0.0043 -0.0128 -0.0041 -0.0026
                                         0.0004 -0.0001  0.0015
  12. (1.99863) BD ( 1) O  4- H  5
               ( 76.04%)   0.8720* O  4 s( 26.39%)p 2.78( 73.25%)d 0.01(  0.34%)
                                                  f 0.00(  0.02%)
                                         0.0000  0.5137  0.0003 -0.0006 -0.0010
                                         0.8409 -0.0243  0.0049 -0.0003 -0.1538
                                         0.0101 -0.0032  0.0004  0.0300  0.0061
                                         0.0051  0.0002 -0.0032 -0.0005  0.0002
                                         0.0242 -0.0016  0.0001  0.0043  0.0013
                                        -0.0002  0.0458  0.0015  0.0000 -0.0266
                                        -0.0027  0.0003 -0.0004  0.0002 -0.0069
                                         0.0002  0.0047  0.0005 -0.0011 -0.0007
                                         0.0060 -0.0002  0.0047  0.0001 -0.0059
                                        -0.0004
               ( 23.96%)   0.4895* H  5 s( 99.89%)p 0.00(  0.08%)d 0.00(  0.03%)
                                         0.9994 -0.0037  0.0001 -0.0002  0.0003
                                        -0.0230 -0.0104  0.0073  0.0020  0.0009
                                         0.0108 -0.0051 -0.0022  0.0012 -0.0012
                                        -0.0012  0.0007  0.0094  0.0000  0.0069
                                         0.0049 -0.0093 -0.0033
  13. (1.99791) BD ( 1) O  4- H  6
               ( 73.73%)   0.8587* O  4 s( 23.35%)p 3.27( 76.26%)d 0.02(  0.37%)
                                                  f 0.00(  0.02%)
                                         0.0000  0.4831 -0.0060 -0.0038 -0.0002
                                        -0.1974  0.0195  0.0039 -0.0005  0.6336
                                        -0.0133  0.0010 -0.0005  0.5669 -0.0151
                                         0.0000 -0.0001 -0.0003 -0.0005 -0.0003
                                         0.0011 -0.0006  0.0000  0.0541  0.0010
                                         0.0004 -0.0202 -0.0008 -0.0003  0.0175
                                        -0.0031  0.0003 -0.0089 -0.0001 -0.0016
                                        -0.0005  0.0060 -0.0002 -0.0068  0.0005
                                        -0.0061 -0.0001  0.0048  0.0007  0.0000
                                         0.0002
               ( 26.27%)   0.5125* H  6 s( 99.84%)p 0.00(  0.12%)d 0.00(  0.04%)
                                         0.9992 -0.0001  0.0000  0.0000  0.0057
                                        -0.0019  0.0016  0.0096  0.0188 -0.0039
                                         0.0166  0.0201 -0.0026 -0.0062 -0.0014
                                        -0.0049 -0.0014  0.0172  0.0058 -0.0056
                                        -0.0032  0.0000  0.0015
  14. (1.99863) BD ( 1) O  7- H  8
               ( 76.04%)   0.8720* O  7 s( 26.39%)p 2.78( 73.25%)d 0.01(  0.34%)
                                                  f 0.00(  0.02%)
                                         0.0000  0.5137  0.0003 -0.0006 -0.0010
                                        -0.5536  0.0208 -0.0003  0.0005 -0.6514
                                         0.0160 -0.0058  0.0000  0.0301  0.0061
                                         0.0051  0.0002  0.0413  0.0015 -0.0002
                                        -0.0084  0.0020 -0.0003 -0.0231  0.0007
                                         0.0000 -0.0202 -0.0003 -0.0002 -0.0266
                                        -0.0027  0.0003 -0.0004  0.0002  0.0075
                                         0.0003  0.0036 -0.0004 -0.0046  0.0005
                                        -0.0039 -0.0005  0.0047  0.0001 -0.0059
                                        -0.0004
               ( 23.96%)   0.4895* H  8 s( 99.89%)p 0.00(  0.08%)d 0.00(  0.03%)
                                         0.9994 -0.0037  0.0001 -0.0002  0.0062
                                         0.0132  0.0060 -0.0039  0.0189  0.0086
                                         0.0108 -0.0051 -0.0022  0.0054  0.0049
                                         0.0087 -0.0004 -0.0037 -0.0006 -0.0045
                                        -0.0014 -0.0093 -0.0033
  15. (1.99791) BD ( 1) O  7- H  9
               ( 73.73%)   0.8587* O  7 s( 23.35%)p 3.27( 76.26%)d 0.02(  0.37%)
                                                  f 0.00(  0.02%)
                                         0.0000  0.4831 -0.0060 -0.0038 -0.0002
                                         0.6475 -0.0213  0.0028 -0.0002 -0.1458
                                        -0.0103 -0.0029  0.0007  0.5668 -0.0151
                                         0.0000 -0.0001 -0.0174 -0.0005 -0.0001
                                         0.0463  0.0012  0.0004 -0.0280  0.0001
                                        -0.0002  0.0104  0.0008  0.0004  0.0175
                                        -0.0031  0.0003 -0.0089 -0.0001  0.0060
                                         0.0001 -0.0017  0.0005  0.0087 -0.0002
                                        -0.0029  0.0005  0.0048  0.0007  0.0000
                                         0.0002
               ( 26.27%)   0.5125* H  9 s( 99.84%)p 0.00(  0.12%)d 0.00(  0.04%)
                                         0.9992 -0.0001  0.0000  0.0000  0.0054
                                         0.0172 -0.0042 -0.0098 -0.0077  0.0006
                                         0.0166  0.0201 -0.0026 -0.0017 -0.0021
                                         0.0173  0.0057 -0.0043 -0.0017  0.0082
                                         0.0029  0.0000  0.0015
 ---------------- non-Lewis ----------------------------------------------------
  16. (0.01793) BD*( 1) O  1- H  2
               ( 23.96%)   0.4895* O  1 s( 26.39%)p 2.78( 73.25%)d 0.01(  0.34%)
                                                  f 0.00(  0.02%)
                                         0.0000 -0.5137 -0.0003  0.0006  0.0010
                                         0.2872 -0.0034 -0.0052  0.0003 -0.8052
                                         0.0260 -0.0026  0.0004 -0.0301 -0.0061
                                        -0.0051 -0.0002  0.0381  0.0010  0.0001
                                         0.0158  0.0003 -0.0002 -0.0188  0.0021
                                        -0.0002  0.0257  0.0012 -0.0002  0.0266
                                         0.0027 -0.0003  0.0004 -0.0002  0.0006
                                         0.0005  0.0083  0.0001 -0.0057 -0.0002
                                         0.0021 -0.0007 -0.0047 -0.0001  0.0059
                                         0.0004
               ( 76.04%)  -0.8720* H  2 s( 99.89%)p 0.00(  0.08%)d 0.00(  0.03%)
                                        -0.9994  0.0037 -0.0001  0.0002  0.0064
                                        -0.0097 -0.0044  0.0034  0.0209  0.0095
                                        -0.0108  0.0051  0.0022  0.0066  0.0036
                                         0.0076  0.0004  0.0057 -0.0006  0.0024
                                         0.0035  0.0093  0.0033
  17. (0.00060) BD*( 1) O  1- H  3
               ( 26.27%)   0.5125* O  1 s( 23.35%)p 3.27( 76.26%)d 0.02(  0.37%)
                                                  f 0.00(  0.02%)
                                         0.0000 -0.4832  0.0060  0.0038  0.0002
                                         0.4502 -0.0017 -0.0011 -0.0007  0.4878
                                        -0.0236 -0.0039  0.0002 -0.5667  0.0151
                                         0.0000  0.0001 -0.0177 -0.0009 -0.0004
                                         0.0474  0.0005  0.0004  0.0261  0.0011
                                         0.0003 -0.0099  0.0000  0.0001 -0.0175
                                         0.0031 -0.0003  0.0089  0.0001  0.0044
                                        -0.0004  0.0044  0.0003  0.0018  0.0004
                                        -0.0090  0.0004 -0.0048 -0.0007  0.0000
                                        -0.0002
               ( 73.73%)  -0.8587* H  3 s( 99.84%)p 0.00(  0.12%)d 0.00(  0.04%)
                                        -0.9992  0.0001  0.0000  0.0000  0.0112
                                         0.0153 -0.0026 -0.0002  0.0111 -0.0033
                                        -0.0166 -0.0201  0.0026 -0.0080 -0.0035
                                         0.0124  0.0043  0.0128  0.0041  0.0026
                                        -0.0004  0.0001 -0.0015
  18. (0.01793) BD*( 1) O  4- H  5
               ( 23.96%)   0.4895* O  4 s( 26.39%)p 2.78( 73.25%)d 0.01(  0.34%)
                                                  f 0.00(  0.02%)
                                         0.0000 -0.5137 -0.0003  0.0006  0.0010
                                        -0.8409  0.0243 -0.0049  0.0003  0.1538
                                        -0.0101  0.0032 -0.0004 -0.0300 -0.0061
                                        -0.0051 -0.0002  0.0032  0.0005 -0.0002
                                        -0.0242  0.0016 -0.0001 -0.0043 -0.0013
                                         0.0002 -0.0458 -0.0015  0.0000  0.0266
                                         0.0027 -0.0003  0.0004 -0.0002  0.0069
                                        -0.0002 -0.0047 -0.0005  0.0011  0.0007
                                        -0.0060  0.0002 -0.0047 -0.0001  0.0059
                                         0.0004
               ( 76.04%)  -0.8720* H  5 s( 99.89%)p 0.00(  0.08%)d 0.00(  0.03%)
                                        -0.9994  0.0037 -0.0001  0.0002 -0.0003
                                         0.0230  0.0104 -0.0073 -0.0020 -0.0009
                                        -0.0108  0.0051  0.0022 -0.0012  0.0012
                                         0.0012 -0.0007 -0.0094  0.0000 -0.0069
                                        -0.0049  0.0093  0.0033
  19. (0.00060) BD*( 1) O  4- H  6
               ( 26.27%)   0.5125* O  4 s( 23.35%)p 3.27( 76.26%)d 0.02(  0.37%)
                                                  f 0.00(  0.02%)
                                         0.0000 -0.4831  0.0060  0.0038  0.0002
                                         0.1974 -0.0195 -0.0039  0.0005 -0.6336
                                         0.0133 -0.0010  0.0005 -0.5669  0.0151
                                         0.0000  0.0001  0.0003  0.0005  0.0003
                                        -0.0011  0.0006  0.0000 -0.0541 -0.0010
                                        -0.0004  0.0202  0.0008  0.0003 -0.0175
                                         0.0031 -0.0003  0.0089  0.0001  0.0016
                                         0.0005 -0.0060  0.0002  0.0068 -0.0005
                                         0.0061  0.0001 -0.0048 -0.0007  0.0000
                                        -0.0002
               ( 73.73%)  -0.8587* H  6 s( 99.84%)p 0.00(  0.12%)d 0.00(  0.04%)
                                        -0.9992  0.0001  0.0000  0.0000 -0.0057
                                         0.0019 -0.0016 -0.0096 -0.0188  0.0039
                                        -0.0166 -0.0201  0.0026  0.0062  0.0014
                                         0.0049  0.0014 -0.0172 -0.0058  0.0056
                                         0.0032  0.0000 -0.0015
  20. (0.01792) BD*( 1) O  7- H  8
               ( 23.96%)   0.4895* O  7 s( 26.39%)p 2.78( 73.25%)d 0.01(  0.34%)
                                                  f 0.00(  0.02%)
                                         0.0000 -0.5137 -0.0003  0.0006  0.0010
                                         0.5536 -0.0208  0.0003 -0.0005  0.6514
                                        -0.0160  0.0058  0.0000 -0.0301 -0.0061
                                        -0.0051 -0.0002 -0.0413 -0.0015  0.0002
                                         0.0084 -0.0020  0.0003  0.0231 -0.0007
                                         0.0000  0.0202  0.0003  0.0002  0.0266
                                         0.0027 -0.0003  0.0004 -0.0002 -0.0075
                                        -0.0003 -0.0036  0.0004  0.0046 -0.0005
                                         0.0039  0.0005 -0.0047 -0.0001  0.0059
                                         0.0004
               ( 76.04%)  -0.8720* H  8 s( 99.89%)p 0.00(  0.08%)d 0.00(  0.03%)
                                        -0.9994  0.0037 -0.0001  0.0002 -0.0062
                                        -0.0132 -0.0060  0.0039 -0.0189 -0.0086
                                        -0.0108  0.0051  0.0022 -0.0054 -0.0049
                                        -0.0087  0.0004  0.0037  0.0006  0.0045
                                         0.0014  0.0093  0.0033
  21. (0.00060) BD*( 1) O  7- H  9
               ( 26.27%)   0.5125* O  7 s( 23.35%)p 3.27( 76.26%)d 0.02(  0.37%)
                                                  f 0.00(  0.02%)
                                         0.0000 -0.4831  0.0060  0.0038  0.0002
                                        -0.6475  0.0213 -0.0028  0.0002  0.1458
                                         0.0103  0.0029 -0.0007 -0.5668  0.0151
                                         0.0000  0.0001  0.0174  0.0005  0.0001
                                        -0.0463 -0.0012 -0.0004  0.0280 -0.0001
                                         0.0002 -0.0104 -0.0008 -0.0004 -0.0175
                                         0.0031 -0.0003  0.0089  0.0001 -0.0060
                                        -0.0001  0.0017 -0.0005 -0.0087  0.0002
                                         0.0029 -0.0005 -0.0048 -0.0007  0.0000
                                        -0.0002
               ( 73.73%)  -0.8587* H  9 s( 99.84%)p 0.00(  0.12%)d 0.00(  0.04%)
                                        -0.9992  0.0001  0.0000  0.0000 -0.0054
                                        -0.0172  0.0042  0.0098  0.0077 -0.0006
                                        -0.0166 -0.0201  0.0026  0.0017  0.0021
                                        -0.0173 -0.0057  0.0043  0.0017 -0.0082
                                        -0.0029  0.0000 -0.0015
  22. (0.00022) RY ( 1) O  1            s( 16.84%)p 4.43( 74.56%)d 0.41(  6.99%)
                                                  f 0.10(  1.61%)
                                         0.0000 -0.0100  0.3547 -0.1874  0.0861
                                        -0.0182  0.5919  0.1798 -0.0731  0.0056
                                         0.4189 -0.0554  0.0060 -0.0162 -0.3144
                                         0.2602  0.1089 -0.0486 -0.0366 -0.0186
                                         0.0521  0.0461 -0.0264  0.0616 -0.0119
                                        -0.0063 -0.1928  0.0834 -0.0272  0.0929
                                         0.0447  0.0283  0.0312 -0.0080 -0.0419
                                         0.0351 -0.0482  0.0170 -0.0396  0.0025
                                        -0.0478  0.0170  0.0109 -0.0211  0.0686
                                        -0.0034
  23. (0.00011) RY ( 2) O  1            s( 11.83%)p 3.40( 40.23%)d 3.82( 45.19%)
                                                  f 0.23(  2.75%)
                                         0.0000  0.0076  0.3189 -0.1285 -0.0039
                                        -0.0288 -0.1223  0.0335 -0.1245 -0.0146
                                         0.0156 -0.0546  0.0700  0.0061  0.5793
                                         0.1074  0.1198  0.4065 -0.0401 -0.0104
                                         0.2770 -0.0448 -0.0283  0.3084 -0.1385
                                         0.0045 -0.2722  0.0019  0.0262 -0.1227
                                        -0.0322 -0.0152 -0.0957 -0.0006 -0.0632
                                         0.0066  0.0029 -0.0104 -0.0693  0.0034
                                         0.0777 -0.0083 -0.0526 -0.0066 -0.0160
                                        -0.0144
  24. (0.00008) RY ( 3) O  1            s( 11.94%)p 1.91( 22.80%)d 5.21( 62.20%)
                                                  f 0.26(  3.05%)
  25. (0.00006) RY ( 4) O  1            s(  3.51%)p11.84( 41.49%)d15.05( 52.77%)
                                                  f 0.64(  2.24%)
  26. (0.00003) RY ( 5) O  1            s(  9.48%)p 6.64( 62.95%)d 2.27( 21.51%)
                                                  f 0.64(  6.06%)
  27. (0.00002) RY ( 6) O  1            s(  6.72%)p 3.87( 25.99%)d 8.83( 59.38%)
                                                  f 1.18(  7.91%)
  28. (0.00001) RY ( 7) O  1            s( 16.55%)p 2.61( 43.24%)d 1.41( 23.29%)
                                                  f 1.02( 16.92%)
  29. (0.00000) RY ( 8) O  1            s( 21.44%)p 1.86( 39.94%)d 1.25( 26.79%)
                                                  f 0.55( 11.83%)
  30. (0.00000) RY ( 9) O  1            s(  7.44%)p 7.31( 54.42%)d 3.27( 24.32%)
                                                  f 1.86( 13.82%)
  31. (0.00000) RY (10) O  1            s(  0.23%)p57.95( 13.20%)d99.99( 24.61%)
                                                  f99.99( 61.96%)
  32. (0.00000) RY (11) O  1            s(  0.49%)p24.79( 12.11%)d87.22( 42.59%)
                                                  f91.76( 44.81%)
  33. (0.00000) RY (12) O  1            s(  0.12%)p99.99( 19.90%)d99.99( 31.52%)
                                                  f99.99( 48.46%)
  34. (0.00000) RY (13) O  1            s(  1.79%)p19.97( 35.71%)d18.12( 32.40%)
                                                  f16.83( 30.10%)
  35. (0.00000) RY (14) O  1            s(  0.36%)p21.25(  7.55%)d44.18( 15.70%)
                                                  f99.99( 76.39%)
  36. (0.00000) RY (15) O  1            s(  0.29%)p11.74(  3.39%)d18.70(  5.40%)
                                                  f99.99( 90.92%)
  37. (0.00000) RY (16) O  1            s(  0.23%)p 3.57(  0.83%)d19.51(  4.53%)
                                                  f99.99( 94.41%)
  38. (0.00000) RY (17) O  1            s(  0.13%)p49.01(  6.57%)d99.99( 33.19%)
                                                  f99.99( 60.11%)
  39. (0.00000) RY (18) O  1            s(  0.06%)p40.45(  2.38%)d99.99( 11.97%)
                                                  f99.99( 85.59%)
  40. (0.00000) RY (19) O  1            s(  0.09%)p20.60(  1.83%)d99.99( 13.18%)
                                                  f99.99( 84.90%)
  41. (0.00000) RY (20) O  1            s(  0.54%)p22.07( 11.99%)d12.32(  6.69%)
                                                  f99.99( 80.78%)
  42. (0.00000) RY (21) O  1            s(  0.24%)p33.00(  7.83%)d99.99( 44.70%)
                                                  f99.99( 47.23%)
  43. (0.00000) RY (22) O  1            s(  0.52%)p 5.61(  2.92%)d64.17( 33.43%)
                                                  f99.99( 63.12%)
  44. (0.00000) RY (23) O  1            s(  0.53%)p51.76( 27.36%)d56.23( 29.72%)
                                                  f80.21( 42.39%)
  45. (0.00000) RY (24) O  1            s(  1.86%)p 9.10( 16.93%)d19.20( 35.72%)
                                                  f24.45( 45.48%)
  46. (0.00000) RY (25) O  1            s(  4.53%)p 3.52( 15.97%)d 6.64( 30.08%)
                                                  f10.91( 49.42%)
  47. (0.00000) RY (26) O  1            s(  1.17%)p 4.26(  4.98%)d62.58( 73.09%)
                                                  f17.78( 20.76%)
  48. (0.00000) RY (27) O  1            s(  2.67%)p 5.33( 14.21%)d23.89( 63.72%)
                                                  f 7.28( 19.41%)
  49. (0.00000) RY (28) O  1            s(  3.93%)p 4.54( 17.87%)d14.05( 55.27%)
                                                  f 5.83( 22.93%)
  50. (0.00000) RY (29) O  1            s(  2.79%)p 7.23( 20.18%)d18.60( 51.88%)
                                                  f 9.02( 25.15%)
  51. (0.00000) RY (30) O  1            s(  5.68%)p 2.71( 15.36%)d 9.38( 53.24%)
                                                  f 4.53( 25.72%)
  52. (0.00000) RY (31) O  1            s(  4.19%)p 6.35( 26.64%)d13.77( 57.77%)
                                                  f 2.72( 11.40%)
  53. (0.00000) RY (32) O  1            s( 23.05%)p 0.54( 12.38%)d 1.64( 37.72%)
                                                  f 1.17( 26.85%)
  54. (0.00000) RY (33) O  1            s(  8.41%)p 2.18( 18.31%)d 5.84( 49.08%)
                                                  f 2.88( 24.19%)
  55. (0.00000) RY (34) O  1            s(  9.83%)p 3.46( 34.00%)d 3.91( 38.40%)
                                                  f 1.81( 17.77%)
  56. (0.00000) RY (35) O  1            s( 68.85%)p 0.19( 12.76%)d 0.20( 13.61%)
                                                  f 0.07(  4.79%)
  57. (0.00000) RY (36) O  1            s( 13.50%)p 4.05( 54.60%)d 1.46( 19.70%)
                                                  f 0.90( 12.20%)
  58. (0.00000) RY (37) O  1            s( 31.95%)p 0.68( 21.59%)d 1.08( 34.66%)
                                                  f 0.37( 11.81%)
  59. (0.00000) RY (38) O  1            s(  0.75%)p10.92(  8.14%)d99.99( 76.68%)
                                                  f19.35( 14.43%)
  60. (0.00000) RY (39) O  1            s(  1.23%)p13.61( 16.70%)d50.19( 61.58%)
                                                  f16.71( 20.50%)
  61. (0.00000) RY (40) O  1            s(  1.18%)p20.50( 24.29%)d36.08( 42.74%)
                                                  f26.82( 31.78%)
  62. (0.00000) RY (41) O  1            s(  3.18%)p 2.17(  6.88%)d16.35( 51.97%)
                                                  f11.95( 37.97%)
  63. (0.00155) RY ( 1) H  2            s( 57.97%)p 0.38( 22.32%)d 0.34( 19.71%)
                                         0.0140  0.7589 -0.0457  0.0394  0.3886
                                        -0.0607  0.0119  0.0753  0.1201 -0.0951
                                        -0.0604  0.1851 -0.0361  0.2013  0.0035
                                        -0.1015  0.0016  0.1773  0.0055  0.1404
                                        -0.0080  0.3083  0.0005
  64. (0.00136) RY ( 2) H  2            s(  9.34%)p 6.49( 60.59%)d 3.22( 30.07%)
                                         0.0011  0.2720  0.1209 -0.0692 -0.1419
[...]
                 (A) (A) (A) (A) (A) (A) (A) (A) (A) (A) (A) (A)
                 (A) (A) (A) (A) (A) (A) (A) (A) (A) (A) (A) (A)
                 (A) (A) (A) (A) (A) (A) (A) (A) (A) (A) (A) (A)
                 (A) (A) (A) (A) (A) (A) (A) (A) (A) (A) (A) (A)
                 (A) (A) (A) (A) (A) (A) (A) (A) (A) (A) (A) (A)
                 (A) (A) (A) (A) (A) (A) (A) (A) (A) (A) (A) (A)
                 (A) (A) (A) (A) (A) (A) (A) (A) (A) (A) (A) (A)
                 (A) (A) (A) (A) (A) (A) (A) (A) (A) (A) (A) (A)
                 (A) (A) (A) (A) (A) (A) (A) (A) (A) (A) (A) (A)
                 (A) (A) (A) (A) (A) (A) (A) (A) (A) (A) (A) (A)
                 (A) (A) (A) (A) (A) (A) (A) (A) (A) (A) (A) (A)
                 (A) (A) (A) (A) (A) (A) (A) (A) (A) (A) (A) (A)
                 (A) (A) (A) (A) (A) (A) (A) (A) (A) (A) (A) (A)
                 (A) (A) (A) (A) (A) (A) (A) (A) (A) (A) (A) (A)
                 (A) (A) (A) (A) (A) (A) (A) (A) (A) (A) (A) (A)
                 (A) (A) (A) (A) (A) (A) (A) (A) (A) (A) (A) (A)
                 (A) (A) (A) (A) (A) (A) (A) (A) (A) (A) (A) (A)
                 (A) (A) (A) (A) (A) (A) (A) (A) (A) (A) (A) (A)
                 (A) (A) (A) (A) (A) (A) (A) (A) (A) (A) (A) (A)
                 (A) (A) (A) (A) (A) (A) (A) (A) (A)
 The electronic state is 1-A.
 Alpha  occ. eigenvalues --  -19.14067  -1.01754  -0.54088  -0.39573  -0.32332
 Alpha  occ. eigenvalues --   -0.02603   0.01713   0.02814   0.03819   0.05315
 Alpha  occ. eigenvalues --    0.05785   0.06586   0.09813   0.09893   0.11010
 Alpha virt. eigenvalues --    0.11812   0.12225   0.14653   0.15068   0.15559
 Alpha virt. eigenvalues --    0.17691   0.19345   0.20028   0.21021   0.22449
 Alpha virt. eigenvalues --    0.23780   0.25469   0.26419   0.29465   0.29785
 Alpha virt. eigenvalues --    0.31210   0.31883   0.32595   0.33099   0.34199
 Alpha virt. eigenvalues --    0.34582   0.35578   0.36895   0.37630   0.38562
 Alpha virt. eigenvalues --    0.39909   0.41174   0.43112   0.43808   0.45046
 Alpha virt. eigenvalues --    0.47504   0.50731   0.51053   0.58003   0.60669
 Alpha virt. eigenvalues --    0.62174   0.65278   0.67082   0.68004   0.70862
 Alpha virt. eigenvalues --    0.72673   0.72935   0.74152   0.74665   0.77870
 Alpha virt. eigenvalues --    0.79188   0.79734   0.80872   0.81674   0.83090
 Alpha virt. eigenvalues --    0.83816   0.84989   0.85815   0.85877   0.88395
 Alpha virt. eigenvalues --    0.89057   0.90313   0.91188   0.91610   0.93302
 Alpha virt. eigenvalues --    0.94310   0.94522   0.96708   0.97577   0.98260
 Alpha virt. eigenvalues --    1.00644   1.01831   1.05279   1.05995   1.07174
 Alpha virt. eigenvalues --    1.08438   1.09644   1.11885   1.12843   1.13935
 Alpha virt. eigenvalues --    1.18062   1.22070   1.24906   1.26540   1.27798
 Alpha virt. eigenvalues --    1.28207   1.30644   1.32905   1.35510   1.36829
 Alpha virt. eigenvalues --    1.38450   1.41256   1.44510   1.48446   1.50506
 Alpha virt. eigenvalues --    1.51808   1.54249   1.55618   1.58160   1.59552
 Alpha virt. eigenvalues --    1.64720   1.65236   1.68416   1.70530   1.71696
 Alpha virt. eigenvalues --    1.77316   1.82954   1.83863   1.85407   1.86266
 Alpha virt. eigenvalues --    1.87588   1.89164   1.93798   1.95873   1.98138
 Alpha virt. eigenvalues --    2.04826   2.11623   2.15883   2.18892   2.22610
 Alpha virt. eigenvalues --    2.25301   2.26986   2.35544   2.37910   2.41156
 Alpha virt. eigenvalues --    2.43007   2.46094   2.48683   2.52380   2.53865
 Alpha virt. eigenvalues --    2.55833   2.56278   2.57467   2.58918   2.61332
 Alpha virt. eigenvalues --    2.63412   2.67093   2.71268   2.73496   2.76008
 Alpha virt. eigenvalues --    2.83280   2.83620   2.86233   2.90026   2.93523
 Alpha virt. eigenvalues --    2.98998   3.03238   3.13358   3.15668   3.20590
 Alpha virt. eigenvalues --    3.22530   3.26629   3.32386   3.35923   3.37463
 Alpha virt. eigenvalues --    3.41137   3.42611   3.51069   3.55573   3.58646
 Alpha virt. eigenvalues --    3.63368   3.74394   3.78014   3.81222   3.88390
 Alpha virt. eigenvalues --    3.96091   4.00712   4.07996   4.14427   4.20229
 Alpha virt. eigenvalues --    4.24631   4.29053   4.30812   4.39563   4.46376
 Alpha virt. eigenvalues --    4.46645   4.50282   4.53210   4.54829   4.59582
 Alpha virt. eigenvalues --    4.64787   4.68004   4.68382   4.72859   4.77822
 Alpha virt. eigenvalues --    4.82735   4.86516   4.88998   4.95792   4.97030
 Alpha virt. eigenvalues --    4.99512   5.01382   5.03896   5.07168   5.11008
 Alpha virt. eigenvalues --    5.13534   5.16310   5.23885   5.31618   5.37020
 Alpha virt. eigenvalues --    5.41480   5.46953   5.53125   5.58951   5.63430
 Alpha virt. eigenvalues --    5.72819   5.77717   5.81389   5.89574   5.94760
 Alpha virt. eigenvalues --    6.15338   6.23899   6.27876   6.40008   6.43789
 Alpha virt. eigenvalues --    6.50528   6.52787   6.66348   6.68944   6.76808
 Alpha virt. eigenvalues --    6.86952   6.89485   6.91673   6.95355   6.98686
 Alpha virt. eigenvalues --    7.08788   7.11268   7.35390   7.48488   7.49599
 Alpha virt. eigenvalues --    7.76217   7.78062   7.80668   7.86051   8.07991
 Alpha virt. eigenvalues --    8.12890   8.17627   8.21131   8.29767   8.35489
 Alpha virt. eigenvalues --    8.40009   8.74700   8.86330   8.88990   8.96982
 Alpha virt. eigenvalues --    9.76739   9.82422   9.95460  10.00319  10.04220
 Alpha virt. eigenvalues --   10.08819  10.24495  10.29489  11.14718  11.19294
 Alpha virt. eigenvalues --   11.80001  11.84956  12.23123  12.33217  13.55289
 Alpha virt. eigenvalues --   13.58278  13.92666  13.96920  15.68816  66.21929
 Alpha virt. eigenvalues --   66.31356
          Condensed to atoms (all electrons):
               1          2          3          4          5          6
     1  O    0.002908  -0.000778  -0.001497   0.000266  -0.000367  -0.000067
     2  H   -0.000778   0.000676   0.000285  -0.000093  -0.000355  -0.000107
     3  H   -0.001497   0.000285   0.001250  -0.000096   0.000093   0.000038
     4  O    0.000266  -0.000093  -0.000096   0.001041  -0.000532  -0.000787
     5  H   -0.000367  -0.000355   0.000093  -0.000532   0.002343   0.000153
     6  H   -0.000067  -0.000107   0.000038  -0.000787   0.000153   0.001114
     7  O   -0.007697   0.005286   0.000284  -0.000923  -0.028231  -0.002925
     8  H   -0.001164  -0.001213  -0.002877   0.000923   0.002909  -0.000423
     9  H    0.001596  -0.000923  -0.000370   0.001033   0.001990  -0.000311
               7          8          9
     1  O   -0.007697  -0.001164   0.001596
     2  H    0.005286  -0.001213  -0.000923
     3  H    0.000284  -0.002877  -0.000370
     4  O   -0.000923   0.000923   0.001033
     5  H   -0.028231   0.002909   0.001990
     6  H   -0.002925  -0.000423  -0.000311
     7  O    7.960915   0.212151   0.249355
     8  H    0.212151   0.554016   0.018816
     9  H    0.249355   0.018816   0.588857
 Mulliken charges:
               1
     1  O    8.006800
     2  H    0.997223
     3  H    1.002890
     4  O    7.999168
     5  H    1.021998
     6  H    1.003316
     7  O   -0.388214
     8  H    0.216863
     9  H    0.139957
 Sum of Mulliken charges =  20.00000
 Mulliken charges with hydrogens summed into heavy atoms:
               1
     1  O   10.006914
     4  O   10.024481
     7  O   -0.031395
         Mulliken charges condensed to fragments:
      1     10.006914
      2     10.024481
      3     -0.031395
 Electronic spatial extent (au):  <R**2>=            114.3408
 Charge=             20.0000 electrons
 Dipole moment (field-independent basis, Debye):
    X=            -77.9425    Y=              3.3859    Z=              1.0865  Tot=             78.0235
 Quadrupole moment (field-independent basis, Debye-Ang):
   XX=             64.9695   YY=            191.8011   ZZ=             -3.4614
   XY=              4.8212   XZ=              0.9749   YZ=              0.2002
 Traceless Quadrupole moment (field-independent basis, Debye-Ang):
   XX=            -19.4669   YY=            107.3647   ZZ=            -87.8978
   XY=              4.8212   XZ=              0.9749   YZ=              0.2002
 Octapole moment (field-independent basis, Debye-Ang**2):
  XXX=           -415.2612  YYY=            -16.3497  ZZZ=              2.3941  XYY=            149.3299
  XXY=             27.8055  XXZ=             11.1062  XZZ=            -14.5797  YZZ=              0.7975
  YYZ=             11.5050  XYZ=              0.5202
 Hexadecapole moment (field-independent basis, Debye-Ang**3):
 XXXX=            -27.6142 YYYY=            457.4319 ZZZZ=             -6.9415 XXXY=             16.8851
 XXXZ=            -21.5942 YYYX=              4.1978 YYYZ=             -6.0075 ZZZX=             -0.6913
 ZZZY=              0.1366 XXYY=            130.8819 XXZZ=            -14.6430 YYZZ=             10.2858
 XXYZ=              7.3762 YYXZ=             16.4160 ZZXY=              1.3565
 N-N= 9.090938007567D+00 E-N=-1.988529939496D+02  KE= 7.598911859238D+01
 Running external command "gaunbo7 R"
         input file       "/storage/home/misab/scratch/132639.master/Gau-28150.EIn"
         output file      "/storage/home/misab/scratch/132639.master/Gau-28150.EOu"
         message file     "/storage/home/misab/scratch/132639.master/Gau-28150.EMs"
         fchk file        "/storage/home/misab/scratch/132639.master/Gau-28150.EFC"
         mat. el file     "/storage/home/misab/scratch/132639.master/Gau-28150.EUF"
 Coordinates do not match /B/: Transferring coordinates from /Mol/ to /B/.

 Writing WrtUnf unformatted file "/storage/home/misab/scratch/132639.master/Gau-28150.EUF"
 Gaussian matrix elements                                         Version   2 NLab=11 Len12L=8 Len4L=8
 Write SHELL TO ATOM MAP                   from file      0 offset           0 length                  96 to matrix element file.
 Write SHELL TYPES                         from file      0 offset           0 length                  96 to matrix element file.
 Write NUMBER OF PRIMITIVES PER SHELL      from file      0 offset           0 length                  96 to matrix element file.
 Write PRIMITIVE EXPONENTS                 from file      0 offset           0 length                 147 to matrix element file.
 Write CONTRACTION COEFFICIENTS            from file      0 offset           0 length                 147 to matrix element file.
 Write P(S=P) CONTRACTION COEFFICIENTS     from file      0 offset           0 length                 147 to matrix element file.
 Write COORDINATES OF EACH SHELL           from file      0 offset           0 length                 288 to matrix element file.
 Write BONDS PER ATOM                      from file      0 offset           0 length                   9 to matrix element file.
 Write BONDED ATOMS                        from file      0 offset           0 length                  12 to matrix element file.
 Write BOND TYPES                          from file      0 offset           0 length                  12 to matrix element file.
 Write ONIOM CHARGE/MULT                   from file      0 offset           0 length                  32 to matrix element file.
 Write ONIOM ATOM LAYERS                   from file      0 offset           0 length                   9 to matrix element file.
 Write ONIOM ATOM MODIFIERS                from file      0 offset           0 length                   9 to matrix element file.
 Write ONIOM ATOM TYPES                    from file      0 offset           0 length                   9 to matrix element file.
 Write ONIOM LINK ATOMS                    from file      0 offset           0 length                   9 to matrix element file.
 Write ONIOM LINK CHARGES                  from file      0 offset           0 length                   9 to matrix element file.
 Write ONIOM LINK DISTANCES                from file      0 offset           0 length                  36 to matrix element file.
 Write SYMINF INTS                         from file      0 offset           0 length                  26 to matrix element file.
 Write ROTTR TO SO                         from file      0 offset           0 length                  12 to matrix element file.
 Write GAUSSIAN SCALARS                    from file    501 offset           0 to matrix element file.
 Write OPTIMIZATION FLAGS                  from file      0 offset           0 length                   9 to matrix element file.
 Write INTEGER ISO                         from file      0 offset           0 length                   9 to matrix element file.
 Write INTEGER FRAGMENT                    from file      0 offset           0 length                   9 to matrix element file.
 Write INTEGER SPIN                        from file      0 offset           0 length                   9 to matrix element file.
 Write REAL ZEFFECTIVE                     from file      0 offset           0 length                   9 to matrix element file.
 Write REAL GFACTOR                        from file      0 offset           0 length                   9 to matrix element file.
 Write REAL ZNUCLEAR                       from file      0 offset           0 length                   9 to matrix element file.
 Write MULLIKEN CHARGES                    from file      0 offset           0 length                   9 to matrix element file.
 Write NUCLEAR GRADIENT                    from file  10584 offset           0 length                  27 to matrix element file.
 Array NUCLEAR FORCE CONSTANTS              on  file  10585 does not exist.
 Write ELECTRIC DIPOLE MOMENT              from file      0 offset           0 length                   3 to matrix element file.
 Write NON-ADIABATIC COUPLING              from file  10810 offset           0 length                  27 to matrix element file.
 Write ELECTRONS PER FRAGMENT              from file      0 offset           0 length                  12 to matrix element file.
 Write BASIS FUNCTIONS PER FRAGMENT        from file      0 offset           0 length                 112 to matrix element file.
 Write FINITE EM FIELD                     from file  10521 offset           0 length                  35 to matrix element file.
 Write OVERLAP                             from file  10514 offset           0 length               38226 to matrix element file.
 Write CORE HAMILTONIAN ALPHA              from file  10515 offset           0 length               38226 to matrix element file.
 Write CORE HAMILTONIAN BETA               from file  10515 offset       38226 length               38226 to matrix element file.
 Write KINETIC ENERGY                      from file  10516 offset           0 length               38226 to matrix element file.
 Array ORTHOGONAL BASIS                     on  file  10685 does not exist.
 Write DIPOLE INTEGRALS                    from file  10518 offset           0 length              114678 to matrix element file.
 Array DIP VEL INTEGRALS                    on  file  10572 does not exist.
 Array R X DEL INTEGRALS                    on  file  10572 does not exist.
 Write ALPHA ORBITAL ENERGIES              from file      0 offset           0 length                 276 to matrix element file.
 Write ALPHA MO COEFFICIENTS               from file  10524 offset           0 length               76176 to matrix element file.
 Write ALPHA DENSITY MATRIX                from file      0 offset           0 length               38226 to matrix element file.
 Write ALPHA FOCK MATRIX                   from file  10536 offset           0 length               38226 to matrix element file.
 Write ENERGY-WEIGHTED DENSITY             from file  10571 offset           0 length               38226 to matrix element file.
 Write FRAGMENT DENSITY MATRICES           from file  10774 offset           0 length              114678 to matrix element file.
 Write FRAGMENT OPERATOR MATRICES          from file  10823 offset           0 length              802794 to matrix element file.
 Write ALPHA SCF DENSITY MATRIX            from file      0 offset           0 length               38226 to matrix element file.
 Write INTEGER PARAMETERS                  from file      0 offset           0 length                   2 to matrix element file.
 No 2e integrals to process.
 Perform NBO analysis...executing G16NBO...


 Natural Energy Decomposition Analysis (Summary):

                                                            Component
                    Energy(wfn)        Energy(wfn)          (kcal/mol)
 ------------------------------------------------------------------------------
 H6O3           -229.4201642(scf)  -229.3727411(loc)      CT =  -29.758
                                                          ES =  -25.337
                                                         POL =  -15.250
                                                          XC =  -10.043
 1. H2O          -76.4306860(def)   -76.4660473(rel) DEF(SE) =   22.190(  2.626)
 2. H2O          -76.4306830(def)   -76.4660474(rel) DEF(SE) =   22.192(  2.625)
 3. H2O          -76.4306878(def)   -76.4660475(rel) DEF(SE) =   22.189(  2.625)
                                                              ---------
                                                           E =  -13.819


 Electrical (ES+POL+SE) :    -32.711
   Charge Transfer (CT) :    -29.758
       Core (XC+DEF-SE) :     48.651
                        ------------
  Total Interaction (E) :    -13.819


 Dipole moments:

   1. H2O
      Dipole (def):   -1.5624(x),   1.0432(y),   1.1353(z);   2.1951(tot) Debye
      Dipole (rel):   -1.3272(x),   0.6298(y),   1.0858(z);   1.8267(tot) Debye
      Dipole (ind):   -0.2352(x),   0.4134(y),   0.0495(z);   0.4782(tot) Debye
   2. H2O
      Dipole (def):    1.6846(x),   0.8311(y),   1.1355(z);   2.1950(tot) Debye
      Dipole (rel):    1.2091(x),   0.8342(y),   1.0860(z);   1.8268(tot) Debye
      Dipole (ind):    0.4756(x),  -0.0031(y),   0.0495(z);   0.4782(tot) Debye
   3. H2O
      Dipole (def):   -0.1223(x),  -1.8745(y),   1.1356(z);   2.1950(tot) Debye
      Dipole (rel):    0.1181(x),  -1.4641(y),   1.0860(z);   1.8268(tot) Debye
      Dipole (ind):   -0.2404(x),  -0.4104(y),   0.0496(z);   0.4781(tot) Debye

 Opening RunExU unformatted file "/storage/home/misab/scratch/132639.master/Gau-28150.EUF"
 Read unf file /storage/home/misab/scratch/132639.master/Gau-28150.EUF:
 Label Gaussian matrix elements                                         IVers= 2 NLab= 2 Version=ES64L-G16RevC.01
 Title C3 water trimer...b3lyp/avtz                                    
 NAtoms=     9 NBasis=   276 NBsUse=   276 ICharg=     0 Multip=     1 NE=    30 Len12L=8 Len4L=8 IOpCl= 0 ICGU=111
 GAUSSIAN SCALARS                    NI= 1 NR= 1 NTot=       1 LenBuf=    2 NRI=1 N=    1000
 Recovered energy= -76.4660474967     dipole=    -30.664926194296      1.332113048007      0.427480316754
 Unable to Open any file for archive entry.
 1\1\GINC-NODE064\SP\RB3LYP\Aug-CC-pVTZ\H6O3\MISAB\22-Dec-2022\0\\# b3l
 yp/aug-cc-pvtz neda=3\\C3 water trimer...b3lyp/avtz\\0,1\O,0,-0.957406
 ,1.304375,-0.09187\H,0,0.014172,1.244266,-0.03794\H,0,-1.225393,1.9750
 12,0.541376\O,0,1.608343,0.176994,-0.091952\H,0,1.070533,-0.63439,-0.0
 38105\H,0,2.322945,0.073834,0.541511\O,0,-0.650927,-1.481377,-0.091938
 \H,0,-1.084742,-0.609957,-0.037991\H,0,-1.097527,-2.048758,0.541465\\V
 ersion=ES64L-G16RevC.01\State=1-A\HF=-76.4660475\RMSD=1.033e-09\Dipole
 =30.6649262,-1.332113,0.4274803\Quadrupole=-14.4731446,79.8230383,-65.
 3498937,3.5844148,-0.7248067,-0.1488543\PG=C01 [X(H6O3)]\\@
 The archive entry for this job was punched.


 KINETICS       FACT
 ---------  =  -------
 MECHANISM     FICTION
 Job cpu time:       0 days  0 hours 12 minutes 49.6 seconds.
 Elapsed time:       0 days  0 hours 12 minutes 52.3 seconds.
 File lengths (MBytes):  RWF=     69 Int=      0 D2E=      0 Chk=     17 Scr=      1
 Normal termination of Gaussian 16 at Thu Dec 22 17:20:37 2022.
