 Entering Gaussian System, Link 0=g16
 Input=b.11.3.2.com
 Output=b.11.3.2.log
 Initial command:
 /cm/shared/nfsapps/gaussian/g16/l1.exe "/storage/home/misab/scratch/132636.master/Gau-9072.inp" -scrdir="/storage/home/misab/scratch/132636.master/"
 Entering Link 1 = /cm/shared/nfsapps/gaussian/g16/l1.exe PID=      9073.
  
 Copyright (c) 1988-2019, Gaussian, Inc.  All Rights Reserved.
  
 This is part of the Gaussian(R) 16 program.  It is based on
 the Gaussian(R) 09 system (copyright 2009, Gaussian, Inc.),
 the Gaussian(R) 03 system (copyright 2003, Gaussian, Inc.),
 the Gaussian(R) 98 system (copyright 1998, Gaussian, Inc.),
 the Gaussian(R) 94 system (copyright 1995, Gaussian, Inc.),
 the Gaussian 92(TM) system (copyright 1992, Gaussian, Inc.),
 the Gaussian 90(TM) system (copyright 1990, Gaussian, Inc.),
 the Gaussian 88(TM) system (copyright 1988, Gaussian, Inc.),
 the Gaussian 86(TM) system (copyright 1986, Carnegie Mellon
 University), and the Gaussian 82(TM) system (copyright 1983,
 Carnegie Mellon University). Gaussian is a federally registered
 trademark of Gaussian, Inc.
  
 This software contains proprietary and confidential information,
 including trade secrets, belonging to Gaussian, Inc.
  
 This software is provided under written license and may be
 used, copied, transmitted, or stored only in accord with that
 written license.
  
 The following legend is applicable only to US Government
 contracts under FAR:
  
                    RESTRICTED RIGHTS LEGEND
  
 Use, reproduction and disclosure by the US Government is
 subject to restrictions as set forth in subparagraphs (a)
 and (c) of the Commercial Computer Software - Restricted
 Rights clause in FAR 52.227-19.
  
 Gaussian, Inc.
 340 Quinnipiac St., Bldg. 40, Wallingford CT 06492
  
  
 ---------------------------------------------------------------
 Warning -- This program may not be used in any manner that
 competes with the business of Gaussian, Inc. or will provide
 assistance to any competitor of Gaussian, Inc.  The licensee
 of this program is prohibited from giving any competitor of
 Gaussian, Inc. access to this program.  By using this program,
 the user acknowledges that Gaussian, Inc. is engaged in the
 business of creating and licensing software in the field of
 computational chemistry and represents and warrants to the
 licensee that it is not a competitor of Gaussian, Inc. and that
 it will not use this program in any manner prohibited above.
 ---------------------------------------------------------------
  

 Cite this work as:
 Gaussian 16, Revision C.01,
 M. J. Frisch, G. W. Trucks, H. B. Schlegel, G. E. Scuseria, 
 M. A. Robb, J. R. Cheeseman, G. Scalmani, V. Barone, 
 G. A. Petersson, H. Nakatsuji, X. Li, M. Caricato, A. V. Marenich, 
 J. Bloino, B. G. Janesko, R. Gomperts, B. Mennucci, H. P. Hratchian, 
 J. V. Ortiz, A. F. Izmaylov, J. L. Sonnenberg, D. Williams-Young, 
 F. Ding, F. Lipparini, F. Egidi, J. Goings, B. Peng, A. Petrone, 
 T. Henderson, D. Ranasinghe, V. G. Zakrzewski, J. Gao, N. Rega, 
 G. Zheng, W. Liang, M. Hada, M. Ehara, K. Toyota, R. Fukuda, 
 J. Hasegawa, M. Ishida, T. Nakajima, Y. Honda, O. Kitao, H. Nakai, 
 T. Vreven, K. Throssell, J. A. Montgomery, Jr., J. E. Peralta, 
 F. Ogliaro, M. J. Bearpark, J. J. Heyd, E. N. Brothers, K. N. Kudin, 
 V. N. Staroverov, T. A. Keith, R. Kobayashi, J. Normand, 
 K. Raghavachari, A. P. Rendell, J. C. Burant, S. S. Iyengar, 
 J. Tomasi, M. Cossi, J. M. Millam, M. Klene, C. Adamo, R. Cammi, 
 J. W. Ochterski, R. L. Martin, K. Morokuma, O. Farkas, 
 J. B. Foresman, and D. J. Fox, Gaussian, Inc., Wallingford CT, 2019.
 
 ******************************************
 Gaussian 16:  ES64L-G16RevC.01  3-Jul-2019
                22-Dec-2022 
 ******************************************
 ----------------------
 # uhf/6-31++g** neda=2
 ----------------------
 1/38=1,62=2,160=70,172=1/1;
 2/12=2,17=6,18=5,40=1/2;
 1/38=1,53=2,62=2,63=1,160=70/22;
 3/5=1,6=6,7=1111,11=2,25=1,30=1,116=2/1,2,3;
 4//1;
 5/5=2,38=5/2;
 6/7=2,8=2,9=2,10=2,28=1,40=111,113=1,114=1,124=2103/1,12(1);
 99/5=1,9=1/99;
 5/5=2,7=1,13=1,38=1,48=100000/2;
 6/7=2,8=2,9=2,10=2,28=1,40=203,113=1,114=1,124=2103/12(-1);
 1/53=2,62=2,63=1,160=70/22;
 3/5=7,6=11,7=1111,11=2,25=1,30=1,82=7,116=2/1,2,3;
 4/5=19/1;
 5/5=2,38=1,48=100000,185=1/2;
 1/53=2,62=2,63=1,160=70/22(-3);
 2//2;
 6/7=2,8=2,9=2,10=2,19=2,28=1,40=301,113=1,114=1,124=2103/1,12;
 99/5=1,9=1/99;
 -----------------------
 Na..OH2 (uhf/6-31++G**)
 -----------------------
 Symbolic Z-matrix:
 Charge =  0 Multiplicity = 2 in supermolecule
 Charge =  0 Multiplicity = 2 in fragment      1.
 Charge =  0 Multiplicity = 1 in fragment      2.
 Na                    0.        0.       -0.34047    
 O                     0.        0.        2.02402    
 H                     0.        0.76273   2.58325    
 H                     0.       -0.76273   2.58325    
 
                          Input orientation:                          
 ---------------------------------------------------------------------
 Center     Atomic      Atomic             Coordinates (Angstroms)
 Number     Number       Type             X           Y           Z
 ---------------------------------------------------------------------
      1         11           0        0.000000    0.000000   -0.340466
      2          8           0        0.000000    0.000000    2.024020
      3          1           0        0.000000    0.762733    2.583246
      4          1           0        0.000000   -0.762733    2.583246
 ---------------------------------------------------------------------
                    Distance matrix (angstroms):
                    1          2          3          4
     1  Na   0.000000
     2  O    2.364486   0.000000
     3  H    3.021565   0.945778   0.000000
     4  H    3.021565   0.945778   1.525466   0.000000
 Stoichiometry    H2NaO(2)
 Framework group  C2V[C2(ONa),SGV(H2)]
 Deg. of freedom     3
 Full point group                 C2V     NOp   4
 Largest Abelian subgroup         C2V     NOp   4
 Largest concise Abelian subgroup C2      NOp   2
                         Standard orientation:                         
 ---------------------------------------------------------------------
 Center     Atomic      Atomic             Coordinates (Angstroms)
 Number     Number       Type             X           Y           Z
 ---------------------------------------------------------------------
      1         11           0        0.000000    0.000000    1.179205
      2          8           0        0.000000   -0.000000   -1.185281
      3          1           0        0.000000    0.762733   -1.744507
      4          1           0       -0.000000   -0.762733   -1.744507
 ---------------------------------------------------------------------
 Rotational constants (GHZ):         430.9798715           8.4160768           8.2548774
 NEDA: doing full-system calculation.
 Standard basis: 6-31++G(d,p) (6D, 7F)
 There are    27 symmetry adapted cartesian basis functions of A1  symmetry.
 There are     3 symmetry adapted cartesian basis functions of A2  symmetry.
 There are    10 symmetry adapted cartesian basis functions of B1  symmetry.
 There are    14 symmetry adapted cartesian basis functions of B2  symmetry.
 There are    27 symmetry adapted basis functions of A1  symmetry.
 There are     3 symmetry adapted basis functions of A2  symmetry.
 There are    10 symmetry adapted basis functions of B1  symmetry.
 There are    14 symmetry adapted basis functions of B2  symmetry.
    54 basis functions,   104 primitive gaussians,    54 cartesian basis functions
    11 alpha electrons       10 beta electrons
       nuclear repulsion energy        32.8466749697 Hartrees.
 NAtoms=    4 NActive=    4 NUniq=    3 SFac= 1.78D+00 NAtFMM=   60 NAOKFM=F Big=F
 Integral buffers will be    131072 words long.
 Raffenetti 2 integral format.
 Two-electron integral symmetry is turned on.
 One-electron integrals computed using PRISM.
 NBasis=    54 RedAO= T EigKep=  4.74D-03  NBF=    27     3    10    14
 NBsUse=    54 1.00D-06 EigRej= -1.00D+00 NBFU=    27     3    10    14
 ExpMin= 7.60D-03 ExpMax= 9.99D+03 ExpMxC= 1.50D+03 IAcc=3 IRadAn=         5 AccDes= 0.00D+00
 Harris functional with IExCor=  205 and IRadAn=       5 diagonalized for initial guess.
 HarFok:  IExCor=  205 AccDes= 0.00D+00 IRadAn=         5 IDoV= 1 UseB2=F ITyADJ=14
 ICtDFT=  3500011 ScaDFX=  1.000000  1.000000  1.000000  1.000000
 FoFCou: FMM=F IPFlag=           0 FMFlag=      100000 FMFlg1=           0
         NFxFlg=           0 DoJE=T BraDBF=F KetDBF=T FulRan=T
         wScrn=  0.000000 ICntrl=       500 IOpCl=  0 I1Cent=   200000004 NGrid=           0
         NMat0=    1 NMatS0=      1 NMatT0=    0 NMatD0=    1 NMtDS0=    0 NMtDT0=    0
 Petite list used in FoFCou.
 Initial guess orbital symmetries:
 Alpha Orbitals:
       Occupied  (A1) (A1) (A1) (A1) (A1) (B2) (B1) (B2) (A1) (B1)
                 (A1)
       Virtual   (A1) (B2) (B1) (A1) (B2) (A1) (B2) (B1) (A1) (A1)
                 (B1) (B2) (B1) (A1) (B2) (A1) (B2) (A1) (A1) (A2)
                 (A1) (B1) (B2) (A1) (A1) (B2) (A1) (B1) (B2) (A1)
                 (A1) (A2) (B1) (A1) (A1) (B2) (B2) (A2) (B1) (A1)
                 (A1) (B2) (A1)
 Beta  Orbitals:
       Occupied  (A1) (A1) (A1) (A1) (A1) (B2) (B1) (B2) (A1) (B1)
       Virtual   (A1) (A1) (B2) (B1) (A1) (B2) (A1) (B2) (B1) (A1)
                 (A1) (B1) (B2) (B1) (A1) (B2) (A1) (B2) (A1) (A1)
                 (A2) (A1) (B1) (B2) (A1) (A1) (B2) (A1) (B1) (B2)
                 (A1) (A1) (A2) (B1) (A1) (A1) (B2) (B2) (A2) (B1)
                 (A1) (A1) (B2) (A1)
 The electronic state of the initial guess is 2-A1.
 Initial guess <Sx>= 0.0000 <Sy>= 0.0000 <Sz>= 0.5000 <S**2>= 0.7500 S= 0.5000
 Keep R1 and R2 ints in memory in symmetry-blocked form, NReq=1948417.
 Requested convergence on RMS density matrix=1.00D-08 within 128 cycles.
 Requested convergence on MAX density matrix=1.00D-06.
 Requested convergence on             energy=1.00D-06.
 No special actions if energy rises.
 SCF Done:  E(UHF) =  -237.881532864     A.U. after   14 cycles
            NFock= 14  Conv=0.33D-08     -V/T= 2.0016
 <Sx>= 0.0000 <Sy>= 0.0000 <Sz>= 0.5000 <S**2>= 0.7501 S= 0.5000
 <L.S>=  0.00000000000    
 Annihilation of the first spin contaminant:
 S**2 before annihilation     0.7501,   after     0.7500

 **********************************************************************

            Population analysis using the SCF Density.

 **********************************************************************

 Orbital symmetries:
 Alpha Orbitals:
       Occupied  (A1) (A1) (A1) (A1) (B2) (B1) (A1) (B2) (A1) (B1)
                 (A1)
       Virtual   (A1) (B2) (B1) (A1) (A1) (B2) (B1) (B2) (A1) (A1)
                 (B2) (B1) (B1) (A1) (A1) (B2) (A1) (B2) (A1) (A2)
                 (A1) (B1) (B2) (A1) (A1) (B2) (A1) (B1) (B2) (A1)
                 (A1) (A2) (B1) (A1) (B2) (A1) (B2) (B1) (A2) (A1)
                 (A1) (B2) (A1)
 Beta  Orbitals:
       Occupied  (A1) (A1) (A1) (B2) (B1) (A1) (A1) (B2) (A1) (B1)
       Virtual   (A1) (B2) (B1) (A1) (A1) (A1) (B2) (B1) (B2) (A1)
                 (A1) (B2) (B1) (B1) (A1) (B2) (A1) (A1) (B2) (A1)
                 (A2) (A1) (B1) (A1) (B2) (A1) (B2) (A1) (B1) (B2)
                 (A1) (A1) (A2) (B1) (A1) (B2) (A1) (B2) (B1) (A2)
                 (A1) (A1) (B2) (A1)
 The electronic state is 2-A1.
 Alpha  occ. eigenvalues --  -40.46793 -20.62968  -2.78304  -1.50265  -1.50249
 Alpha  occ. eigenvalues --   -1.50227  -1.41240  -0.78231  -0.64735  -0.56252
 Alpha  occ. eigenvalues --   -0.15230
 Alpha virt. eigenvalues --    0.00532   0.01256   0.01468   0.02738   0.05136
 Alpha virt. eigenvalues --    0.05224   0.05634   0.07268   0.07654   0.17145
 Alpha virt. eigenvalues --    0.22673   0.23265   0.24562   0.26037   0.29431
 Alpha virt. eigenvalues --    0.30079   0.34812   0.34987   0.40485   0.48026
 Alpha virt. eigenvalues --    0.48974   0.52804   0.62190   0.62456   0.71565
 Alpha virt. eigenvalues --    1.19833   1.24831   1.37937   1.38331   1.45298
 Alpha virt. eigenvalues --    1.63866   1.73773   1.91520   2.00473   2.53897
 Alpha virt. eigenvalues --    2.55446   2.88388   2.93775   2.95200   3.37181
 Alpha virt. eigenvalues --    3.74784   3.92816   4.50714
  Beta  occ. eigenvalues --  -40.46600 -20.62897  -2.77774  -1.50071  -1.50047
  Beta  occ. eigenvalues --   -1.50024  -1.41120  -0.78189  -0.64572  -0.56223
  Beta virt. eigenvalues --    0.00327   0.01762   0.01909   0.02081   0.05039
  Beta virt. eigenvalues --    0.06680   0.06888   0.08178   0.08527   0.09455
  Beta virt. eigenvalues --    0.20097   0.24814   0.24971   0.26047   0.26784
  Beta virt. eigenvalues --    0.30886   0.31283   0.35396   0.35863   0.41290
  Beta virt. eigenvalues --    0.50102   0.50932   0.54519   0.63433   0.63462
  Beta virt. eigenvalues --    0.72610   1.19939   1.24890   1.38030   1.38424
  Beta virt. eigenvalues --    1.45388   1.64121   1.73779   1.91557   2.00569
  Beta virt. eigenvalues --    2.53942   2.55479   2.88431   2.93803   2.95236
  Beta virt. eigenvalues --    3.37216   3.74805   3.92839   4.50830
          Condensed to atoms (all electrons):
               1          2          3          4
     1  Na  11.094964  -0.146628   0.031919   0.031919
     2  O   -0.146628   8.311495   0.282234   0.282234
     3  H    0.031919   0.282234   0.333722  -0.018631
     4  H    0.031919   0.282234  -0.018631   0.333722
          Atomic-Atomic Spin Densities.
               1          2          3          4
     1  Na   1.089154  -0.125187   0.029941   0.029941
     2  O   -0.125187   0.099140  -0.022274  -0.022274
     3  H    0.029941  -0.022274   0.010158   0.005548
     4  H    0.029941  -0.022274   0.005548   0.010158
 Mulliken charges and spin densities:
               1          2
     1  Na  -0.012175   1.023849
     2  O   -0.729336  -0.070595
     3  H    0.370755   0.023373
     4  H    0.370755   0.023373
 Sum of Mulliken charges =  -0.00000   1.00000
 Mulliken charges and spin densities with hydrogens summed into heavy atoms:
               1          2
     1  Na  -0.012175   1.023849
     2  O    0.012175  -0.023849
         Mulliken charges and spin densities condensed to fragments:
      1     -0.012175      1.023849
      2      0.012175     -0.023849
 Electronic spatial extent (au):  <R**2>=            165.8423
 Charge=             -0.0000 electrons
 Dipole moment (field-independent basis, Debye):
    X=             -0.0000    Y=             -0.0000    Z=             -5.0597  Tot=              5.0597
 Quadrupole moment (field-independent basis, Debye-Ang):
   XX=            -21.8089   YY=            -18.4251   ZZ=            -20.5531
   XY=              0.0000   XZ=              0.0000   YZ=             -0.0000
 Traceless Quadrupole moment (field-independent basis, Debye-Ang):
   XX=             -1.5465   YY=              1.8372   ZZ=             -0.2907
   XY=              0.0000   XZ=              0.0000   YZ=             -0.0000
 Octapole moment (field-independent basis, Debye-Ang**2):
  XXX=              0.0000  YYY=              0.0000  ZZZ=            -63.5910  XYY=             -0.0000
  XXY=             -0.0000  XXZ=            -11.9263  XZZ=             -0.0000  YZZ=              0.0000
  YYZ=            -17.5867  XYZ=             -0.0000
 Hexadecapole moment (field-independent basis, Debye-Ang**3):
 XXXX=            -94.2317 YYYY=            -94.4784 ZZZZ=           -333.5401 XXXY=             -0.0000
 XXXZ=             -0.0000 YYYX=             -0.0000 YYYZ=             -0.0000 ZZZX=              0.0000
 ZZZY=              0.0000 XXYY=            -31.7600 XXZZ=            -74.1760 YYZZ=            -65.2664
 XXYZ=              0.0000 YYXZ=              0.0000 ZZXY=              0.0000
 N-N= 3.284667496965D+01 E-N=-6.352372696160D+02  KE= 2.375009614722D+02
 Symmetry A1   KE= 2.059671908297D+02
 Symmetry A2   KE= 3.691896788233D-35
 Symmetry B1   KE= 1.619139187697D+01
 Symmetry B2   KE= 1.534237876555D+01
 Symmetry A1   SP= 1.000000000000D+00
 Symmetry A2   SP= 4.367831282999D-37
 Symmetry B1   SP=-1.613870967474D-15
 Symmetry B2   SP= 1.006835382196D-14
                          Isotropic Fermi Contact Couplings
        Atom                 a.u.       MegaHertz       Gauss      10(-4) cm-1
     1  Na(23)             0.36517     432.00779     154.15112     144.10229
     2  O(17)              0.07593     -46.02624     -16.42331     -15.35270
     3  H(1)               0.00054       2.40918       0.85965       0.80362
     4  H(1)               0.00054       2.40918       0.85965       0.80362
 --------------------------------------------------------
       Center         ----  Spin Dipole Couplings  ----
                      3XX-RR        3YY-RR        3ZZ-RR
 --------------------------------------------------------
     1   Atom       -0.010183     -0.011071      0.021254
     2   Atom       -0.001960     -0.001640      0.003600
     3   Atom       -0.001521     -0.002061      0.003583
     4   Atom       -0.001521     -0.002061      0.003583
 --------------------------------------------------------
                        XY            XZ            YZ
 --------------------------------------------------------
     1   Atom        0.000000      0.000000      0.000000
     2   Atom        0.000000      0.000000      0.000000
     3   Atom        0.000000      0.000000     -0.000420
     4   Atom       -0.000000      0.000000      0.000420
 --------------------------------------------------------


 ---------------------------------------------------------------------------------
              Anisotropic Spin Dipole Couplings in Principal Axis System
 ---------------------------------------------------------------------------------

       Atom             a.u.   MegaHertz   Gauss  10(-4) cm-1        Axes

              Baa    -0.0111    -1.563    -0.558    -0.521 -0.0000  1.0000 -0.0000
     1 Na(23) Bbb    -0.0102    -1.438    -0.513    -0.480  1.0000  0.0000  0.0000
              Bcc     0.0213     3.001     1.071     1.001  0.0000  0.0000  1.0000
 
              Baa    -0.0020     0.142     0.051     0.047  1.0000 -0.0000 -0.0000
     2 O(17)  Bbb    -0.0016     0.119     0.042     0.040  0.0000  1.0000 -0.0000
              Bcc     0.0036    -0.261    -0.093    -0.087  0.0000  0.0000  1.0000
 
              Baa    -0.0021    -1.116    -0.398    -0.372 -0.0000  0.9973  0.0738
     3 H(1)   Bbb    -0.0015    -0.812    -0.290    -0.271  1.0000  0.0000  0.0000
              Bcc     0.0036     1.928     0.688     0.643  0.0000 -0.0738  0.9973
 
              Baa    -0.0021    -1.116    -0.398    -0.372  0.0000  0.9973 -0.0738
     4 H(1)   Bbb    -0.0015    -0.812    -0.290    -0.271  1.0000 -0.0000  0.0000
              Bcc     0.0036     1.928     0.688     0.643  0.0000  0.0738  0.9973
 

 ---------------------------------------------------------------------------------

 Running external command "gaunbo7 R"
         input file       "/storage/home/misab/scratch/132636.master/Gau-9073.EIn"
         output file      "/storage/home/misab/scratch/132636.master/Gau-9073.EOu"
         message file     "/storage/home/misab/scratch/132636.master/Gau-9073.EMs"
         fchk file        "/storage/home/misab/scratch/132636.master/Gau-9073.EFC"
         mat. el file     "/storage/home/misab/scratch/132636.master/Gau-9073.EUF"

 Writing WrtUnf unformatted file "/storage/home/misab/scratch/132636.master/Gau-9073.EUF"
 Gaussian matrix elements                                         Version   2 NLab=11 Len12L=8 Len4L=8
 Write SHELL TO ATOM MAP                   from file      0 offset           0 length                  19 to matrix element file.
 Write SHELL TYPES                         from file      0 offset           0 length                  19 to matrix element file.
 Write NUMBER OF PRIMITIVES PER SHELL      from file      0 offset           0 length                  19 to matrix element file.
 Write PRIMITIVE EXPONENTS                 from file      0 offset           0 length                  42 to matrix element file.
 Write CONTRACTION COEFFICIENTS            from file      0 offset           0 length                  42 to matrix element file.
 Write P(S=P) CONTRACTION COEFFICIENTS     from file      0 offset           0 length                  42 to matrix element file.
 Write COORDINATES OF EACH SHELL           from file      0 offset           0 length                  57 to matrix element file.
 Write BONDS PER ATOM                      from file      0 offset           0 length                   4 to matrix element file.
 Write BONDED ATOMS                        from file      0 offset           0 length                   4 to matrix element file.
 Write BOND TYPES                          from file      0 offset           0 length                   4 to matrix element file.
 Write ONIOM CHARGE/MULT                   from file      0 offset           0 length                  32 to matrix element file.
 Write ONIOM ATOM LAYERS                   from file      0 offset           0 length                   4 to matrix element file.
 Write ONIOM ATOM MODIFIERS                from file      0 offset           0 length                   4 to matrix element file.
 Write ONIOM ATOM TYPES                    from file      0 offset           0 length                   4 to matrix element file.
 Write ONIOM LINK ATOMS                    from file      0 offset           0 length                   4 to matrix element file.
 Write ONIOM LINK CHARGES                  from file      0 offset           0 length                   4 to matrix element file.
 Write ONIOM LINK DISTANCES                from file      0 offset           0 length                  16 to matrix element file.
 Write SYMINF INTS                         from file      0 offset           0 length                  26 to matrix element file.
 Write ROTTR TO SO                         from file      0 offset           0 length                  12 to matrix element file.
 Write GAUSSIAN SCALARS                    from file    501 offset           0 to matrix element file.
 Write OPTIMIZATION FLAGS                  from file      0 offset           0 length                   4 to matrix element file.
 Write INTEGER ISO                         from file      0 offset           0 length                   4 to matrix element file.
 Write INTEGER FRAGMENT                    from file      0 offset           0 length                   4 to matrix element file.
 Write INTEGER SPIN                        from file      0 offset           0 length                   4 to matrix element file.
 Write REAL ZEFFECTIVE                     from file      0 offset           0 length                   4 to matrix element file.
 Write REAL QUADRUPOLEMOMENT               from file      0 offset           0 length                   4 to matrix element file.
 Write REAL GFACTOR                        from file      0 offset           0 length                   4 to matrix element file.
 Write REAL ZNUCLEAR                       from file      0 offset           0 length                   4 to matrix element file.
 Write MULLIKEN CHARGES                    from file      0 offset           0 length                   4 to matrix element file.
 Write NUCLEAR GRADIENT                    from file  10584 offset           0 length                  12 to matrix element file.
 Array NUCLEAR FORCE CONSTANTS              on  file  10585 does not exist.
 Write ELECTRIC DIPOLE MOMENT              from file      0 offset           0 length                   3 to matrix element file.
 Write NON-ADIABATIC COUPLING              from file  10810 offset           0 length                  12 to matrix element file.
 Write ELECTRONS PER FRAGMENT              from file      0 offset           0 length                   8 to matrix element file.
 Write BASIS FUNCTIONS PER FRAGMENT        from file      0 offset           0 length                  96 to matrix element file.
 Write FINITE EM FIELD                     from file  10521 offset           0 length                  35 to matrix element file.
 Write OVERLAP                             from file  10514 offset           0 length                1485 to matrix element file.
 Write CORE HAMILTONIAN ALPHA              from file  10515 offset           0 length                1485 to matrix element file.
 Write CORE HAMILTONIAN BETA               from file  10515 offset        1485 length                1485 to matrix element file.
 Write KINETIC ENERGY                      from file  10516 offset           0 length                1485 to matrix element file.
 Write ORTHOGONAL BASIS                    from file  10685 offset           0 length                2916 to matrix element file.
 Write DIPOLE INTEGRALS                    from file  10518 offset           0 length                4455 to matrix element file.
 Array DIP VEL INTEGRALS                    on  file  10572 does not exist.
 Array R X DEL INTEGRALS                    on  file  10572 does not exist.
 Write ALPHA ORBITAL ENERGIES              from file      0 offset           0 length                  54 to matrix element file.
 Write BETA ORBITAL ENERGIES               from file      0 offset           0 length                  54 to matrix element file.
 Write ALPHA MO COEFFICIENTS               from file  10524 offset           0 length                2916 to matrix element file.
 Write BETA MO COEFFICIENTS                from file  10526 offset           0 length                2916 to matrix element file.
 Write ALPHA DENSITY MATRIX                from file      0 offset           0 length                1485 to matrix element file.
 Write BETA DENSITY MATRIX                 from file      0 offset           0 length                1485 to matrix element file.
 Write ALPHA FOCK MATRIX                   from file  10536 offset           0 length                1485 to matrix element file.
 Write BETA FOCK MATRIX                    from file  10538 offset           0 length                1485 to matrix element file.
 Write ENERGY-WEIGHTED DENSITY             from file  10571 offset           0 length                1485 to matrix element file.
 Write ALPHA SCF DENSITY MATRIX            from file      0 offset           0 length                1485 to matrix element file.
 Write BETA SCF DENSITY MATRIX             from file      0 offset           0 length                1485 to matrix element file.
 Write INTEGER PARAMETERS                  from file      0 offset           0 length                   2 to matrix element file.
 No 2e integrals to process.
 Perform NBO analysis...executing G16NBO...

 *********************************** NBO 7.0 ***********************************
             N A T U R A L   A T O M I C   O R B I T A L   A N D
          N A T U R A L   B O N D   O R B I T A L   A N A L Y S I S
 ************************** Rositha  Kuniyil (I102318) *************************
  (c) Copyright 1996-2021 Board of Regents of the University of Wisconsin System
      on behalf of the Theoretical Chemistry Institute.  All rights reserved.

          Cite this program [NBO 7.0.10 (8-Feb-2021)] as:

          NBO 7.0.  E. D. Glendening, J. K. Badenhoop, A. E. Reed,
          J. E. Carpenter, J. A. Bohmann, C. M. Morales, P. Karafiloglou,
          C. R. Landis, and F. Weinhold, Theoretical Chemistry Institute,
          University of Wisconsin, Madison, WI (2018)


 Filename set to /storage/home/misab/scratch/132636.master/Gau-9073

 Job title: Na..OH2 (uhf/6-31++G**)


 NATURAL POPULATIONS:  Natural atomic orbital occupancies

  NAO Atom No lang   Type(AO)    Occupancy     Spin
 -----------------------------------------------------
   1   Na  1  s      Cor( 1s)     2.00000     0.00000
   2   Na  1  s      Cor( 2s)     2.00000     0.00000
   3   Na  1  s      Val( 3s)     0.97182     0.95945
   4   Na  1  s      Ryd( 5s)     0.00007     0.00002
   5   Na  1  s      Ryd( 6s)     0.00002    -0.00001
   6   Na  1  s      Ryd( 4s)     0.00000     0.00000
   7   Na  1  px     Cor( 2p)     1.99999     0.00000
   8   Na  1  px     Ryd( 4p)     0.00008     0.00005
   9   Na  1  px     Ryd( 5p)     0.00000     0.00000
  10   Na  1  px     Ryd( 3p)     0.00000     0.00000
  11   Na  1  py     Cor( 2p)     1.99999    -0.00001
  12   Na  1  py     Ryd( 4p)     0.00008    -0.00002
  13   Na  1  py     Ryd( 5p)     0.00000     0.00000
  14   Na  1  py     Ryd( 3p)     0.00000     0.00000
  15   Na  1  pz     Cor( 2p)     1.99998     0.00001
  16   Na  1  pz     Ryd( 4p)     0.01425     0.01416
  17   Na  1  pz     Ryd( 5p)     0.00003     0.00000
  18   Na  1  pz     Ryd( 3p)     0.00000     0.00000
  19   Na  1  dxy    Ryd( 3d)     0.00000     0.00000
  20   Na  1  dxz    Ryd( 3d)     0.00000     0.00000
  21   Na  1  dyz    Ryd( 3d)     0.00003     0.00000
  22   Na  1  dx2y2  Ryd( 3d)     0.00002     0.00002
  23   Na  1  dz2    Ryd( 3d)     0.00004     0.00002

  24    O  2  s      Cor( 1s)     2.00000     0.00000
  25    O  2  s      Val( 2s)     1.74274     0.00646
  26    O  2  s      Ryd( 3s)     0.01785     0.01645
  27    O  2  s      Ryd( 4s)     0.00017     0.00001
  28    O  2  s      Ryd( 5s)     0.00000     0.00000
  29    O  2  px     Val( 2p)     1.99571    -0.00011
  30    O  2  px     Ryd( 3p)     0.00120     0.00008
  31    O  2  px     Ryd( 4p)     0.00002     0.00000
  32    O  2  py     Val( 2p)     1.50401    -0.00042
  33    O  2  py     Ryd( 3p)     0.00357    -0.00008
  34    O  2  py     Ryd( 4p)     0.00001     0.00000
  35    O  2  pz     Val( 2p)     1.77258    -0.00156
  36    O  2  pz     Ryd( 3p)     0.00407     0.00345
  37    O  2  pz     Ryd( 4p)     0.00016     0.00002
  38    O  2  dxy    Ryd( 3d)     0.00000     0.00000
  39    O  2  dxz    Ryd( 3d)     0.00171    -0.00002
  40    O  2  dyz    Ryd( 3d)     0.00448    -0.00001
  41    O  2  dx2y2  Ryd( 3d)     0.00124     0.00000
  42    O  2  dz2    Ryd( 3d)     0.00167    -0.00001

  43    H  3  s      Ryd( 2s)     0.47895     0.00100
  44    H  3  s      Val( 1s)     0.00015     0.00003
  45    H  3  s      Ryd( 3s)     0.00004     0.00001
  46    H  3  px     Ryd( 2p)     0.00064     0.00000
  47    H  3  py     Ryd( 2p)     0.00085     0.00000
  48    H  3  pz     Ryd( 2p)     0.00057     0.00000

  49    H  4  s      Ryd( 2s)     0.47895     0.00100
  50    H  4  s      Val( 1s)     0.00015     0.00003
  51    H  4  s      Ryd( 3s)     0.00004     0.00001
  52    H  4  px     Ryd( 2p)     0.00064     0.00000
  53    H  4  py     Ryd( 2p)     0.00085     0.00000
  54    H  4  pz     Ryd( 2p)     0.00057     0.00000


 Summary of Natural Population Analysis:

                                     Natural Population                 Natural
             Natural    ---------------------------------------------    Spin
  Atom No    Charge        Core      Valence    Rydberg      Total      Density
 -------------------------------------------------------------------------------
   Na  1    0.01360      9.99996     0.97182    0.01462    10.98640     0.97367
    O  2   -1.05119      2.00000     7.01504    0.03615     9.05119     0.02428
    H  3    0.51880      0.00000     0.00015    0.48105     0.48120     0.00102
    H  4    0.51880      0.00000     0.00015    0.48105     0.48120     0.00102
 ===============================================================================
 * Total *  0.00000     11.99996     7.98717    1.01287    21.00000     1.00000

                                 Natural Population
 ---------------------------------------------------------
   Core                      11.99996 ( 99.9997% of   12)
   Valence                    7.98717 ( 88.7464% of    9)
   Natural Minimal Basis     19.98713 ( 95.1768% of   21)
   Natural Rydberg Basis      1.01287 (  4.8232% of   21)
 ---------------------------------------------------------

    Atom No         Natural Electron Configuration
 ----------------------------------------------------------------------------
     Na  1      [core]3s( 0.97)4p( 0.01)
      O  2      [core]2s( 1.74)2p( 5.27)3s( 0.02)3p( 0.01)3d( 0.01)
      H  3            2s( 0.48)
      H  4            2s( 0.48)


 ***************************************************
 *******         Alpha spin orbitals         *******
 ***************************************************


 NATURAL POPULATIONS:  Natural atomic orbital occupancies

  NAO Atom No lang   Type(AO)    Occupancy      Energy
 -------------------------------------------------------
   1   Na  1  s      Cor( 1s)     1.00000     -40.39856
   2   Na  1  s      Cor( 2s)     1.00000      -2.85239
   3   Na  1  s      Val( 3s)     0.96563      -0.14413
   4   Na  1  s      Ryd( 5s)     0.00004       0.32361
   5   Na  1  s      Ryd( 6s)     0.00001       0.49376
   6   Na  1  s      Ryd( 4s)     0.00000       0.15950
   7   Na  1  px     Cor( 2p)     0.99999      -1.50225
   8   Na  1  px     Ryd( 4p)     0.00006       0.09086
   9   Na  1  px     Ryd( 5p)     0.00000       0.20561
  10   Na  1  px     Ryd( 3p)     0.00000       0.03392
  11   Na  1  py     Cor( 2p)     0.99999      -1.50248
  12   Na  1  py     Ryd( 4p)     0.00003       0.10744
  13   Na  1  py     Ryd( 5p)     0.00000       0.20986
  14   Na  1  py     Ryd( 3p)     0.00000       0.04880
  15   Na  1  pz     Cor( 2p)     0.99999      -1.50199
  16   Na  1  pz     Ryd( 4p)     0.01420       0.20237
  17   Na  1  pz     Ryd( 5p)     0.00001       0.35334
  18   Na  1  pz     Ryd( 3p)     0.00000       0.08000
  19   Na  1  dxy    Ryd( 3d)     0.00000       0.48171
  20   Na  1  dxz    Ryd( 3d)     0.00000       0.56837
  21   Na  1  dyz    Ryd( 3d)     0.00001       0.64840
  22   Na  1  dx2y2  Ryd( 3d)     0.00002       0.48552
  23   Na  1  dz2    Ryd( 3d)     0.00003       0.81145

  24    O  2  s      Cor( 1s)     1.00000     -20.62963
  25    O  2  s      Val( 2s)     0.87460      -1.08549
  26    O  2  s      Ryd( 3s)     0.01715       0.45328
  27    O  2  s      Ryd( 4s)     0.00009       1.45406
  28    O  2  s      Ryd( 5s)     0.00000       4.40076
  29    O  2  px     Val( 2p)     0.99780      -0.55811
  30    O  2  px     Ryd( 3p)     0.00064       0.51572
  31    O  2  px     Ryd( 4p)     0.00001       1.09397
  32    O  2  py     Val( 2p)     0.75179      -0.39804
  33    O  2  py     Ryd( 3p)     0.00175       0.71710
  34    O  2  py     Ryd( 4p)     0.00001       1.22783
  35    O  2  pz     Val( 2p)     0.88551      -0.50224
  36    O  2  pz     Ryd( 3p)     0.00376       0.68048
  37    O  2  pz     Ryd( 4p)     0.00009       1.06664
  38    O  2  dxy    Ryd( 3d)     0.00000       2.09867
  39    O  2  dxz    Ryd( 3d)     0.00085       2.07620
  40    O  2  dyz    Ryd( 3d)     0.00224       2.90341
  41    O  2  dx2y2  Ryd( 3d)     0.00062       2.47344
  42    O  2  dz2    Ryd( 3d)     0.00083       2.12190

  43    H  3  s      Ryd( 2s)     0.23998       0.34580
  44    H  3  s      Val( 1s)     0.00009       0.16807
  45    H  3  s      Ryd( 3s)     0.00003       0.82151
  46    H  3  px     Ryd( 2p)     0.00032       2.65510
  47    H  3  py     Ryd( 2p)     0.00042       3.27236
  48    H  3  pz     Ryd( 2p)     0.00028       3.03070

  49    H  4  s      Ryd( 2s)     0.23998       0.34580
  50    H  4  s      Val( 1s)     0.00009       0.16807
  51    H  4  s      Ryd( 3s)     0.00003       0.82151
  52    H  4  px     Ryd( 2p)     0.00032       2.65510
  53    H  4  py     Ryd( 2p)     0.00042       3.27236
  54    H  4  pz     Ryd( 2p)     0.00028       3.03070


 Summary of Natural Population Analysis:

                                     Natural Population
             Natural    ---------------------------------------------
  Atom No    Charge        Core      Valence    Rydberg      Total
 --------------------------------------------------------------------
   Na  1   -0.48004      4.99998     0.96563    0.01443     5.98004
    O  2   -0.53773      1.00000     3.50971    0.02802     4.53773
    H  3    0.25889      0.00000     0.00009    0.24102     0.24111
    H  4    0.25889      0.00000     0.00009    0.24102     0.24111
 ====================================================================
 * Total * -0.50000      5.99998     4.47552    0.52450    11.00000

                                 Natural Population
 ---------------------------------------------------------
   Core                       5.99998 ( 99.9996% of    6)
   Valence                    4.47552 ( 89.5105% of    5)
   Natural Minimal Basis     10.47550 ( 95.2319% of   11)
   Natural Rydberg Basis      0.52450 (  4.7681% of   11)
 ---------------------------------------------------------

    Atom No         Natural Electron Configuration
 ----------------------------------------------------------------------------
     Na  1      [core]3s( 0.97)4p( 0.01)
      O  2      [core]2s( 0.87)2p( 2.64)3s( 0.02)3p( 0.01)
      H  3            2s( 0.24)
      H  4            2s( 0.24)


 NATURAL BOND ORBITAL ANALYSIS, alpha spin orbitals:

 User-requested molecular units:
   1. <Na1>
   2. <O2,H3,H4>

                            Occupancies       Lewis Structure    Low   High
         Max    Occ     -------------------  -----------------   occ   occ
  Cycle  Ctr   Thresh    Lewis   non-Lewis     CR  BD  nC  LP    (L)   (NL)
 ============================================================================
    1     2     0.95    10.97806   0.02194      6   2   0   3     0      0
    2     2     0.76    10.63825   0.36175      6   1   0   4     0      1
    3     2     0.75    10.49759   0.50241      6   0   0   5     0      2
    4     2     0.95    10.97806   0.02194      6   2   0   3     0      0
 ----------------------------------------------------------------------------

 Structure accepted: No low occupancy Lewis orbitals

 -------------------------------------------------------
   Core                      5.99998 (100.000% of   6)
   Valence Lewis             4.97808 ( 99.562% of   5)
  ==================      =============================
   Total Lewis              10.97806 ( 99.801% of  11)
  -----------------------------------------------------
   Valence non-Lewis         0.00057 (  0.005% of  11)
   Rydberg non-Lewis         0.02137 (  0.194% of  11)
  ==================      =============================
   Total non-Lewis           0.02194 (  0.199% of  11)
 -------------------------------------------------------


     (Occupancy)   Bond orbital / Coefficients / Hybrids
 ------------------ Lewis ------------------------------------------------------
   1. (1.00000) CR ( 1)Na  1            s(100.00%)
                                         1.0000  0.0000  0.0000  0.0000  0.0000
                                         0.0000  0.0000  0.0000  0.0000  0.0000
                                         0.0000  0.0000  0.0000  0.0000  0.0000
                                         0.0000  0.0000  0.0000  0.0000  0.0000
                                         0.0000  0.0000  0.0000
   2. (1.00000) CR ( 2)Na  1            s(100.00%)
                                         0.0000  1.0000  0.0000  0.0000  0.0000
                                         0.0000  0.0000  0.0000  0.0000  0.0000
                                         0.0000  0.0000  0.0000  0.0000  0.0000
                                         0.0000  0.0000  0.0000  0.0000  0.0000
                                         0.0000  0.0000  0.0000
   3. (0.99999) CR ( 3)Na  1            s(  0.00%)p 1.00(100.00%)
                                         0.0000  0.0000  0.0000  0.0000  0.0000
                                         0.0000  1.0000  0.0000  0.0000  0.0000
                                         0.0000  0.0000  0.0000  0.0000  0.0000
                                         0.0000  0.0000  0.0000  0.0000  0.0000
                                         0.0000  0.0000  0.0000
   4. (0.99999) CR ( 4)Na  1            s(  0.00%)p 1.00(100.00%)
                                         0.0000  0.0000  0.0000  0.0000  0.0000
                                         0.0000  0.0000  0.0000  0.0000  0.0000
                                         1.0000  0.0000  0.0000  0.0000  0.0000
                                         0.0000  0.0000  0.0000  0.0000  0.0000
                                         0.0000  0.0000  0.0000
   5. (0.99999) CR ( 5)Na  1            s(  0.00%)p 1.00(100.00%)
                                         0.0000  0.0000  0.0000  0.0000  0.0000
                                         0.0000  0.0000  0.0000  0.0000  0.0000
                                         0.0000  0.0000  0.0000  0.0000  1.0000
                                         0.0000  0.0000  0.0000  0.0000  0.0000
                                         0.0000  0.0000  0.0000
   6. (1.00000) CR ( 1) O  2            s(100.00%)
                                         1.0000  0.0000  0.0000  0.0000  0.0000
                                         0.0000  0.0000  0.0000  0.0000  0.0000
                                         0.0000  0.0000  0.0000  0.0000  0.0000
                                         0.0000  0.0000  0.0000  0.0000
   7. (0.97965) LP ( 1)Na  1            s( 98.57%)p 0.01(  1.43%)d 0.00(  0.00%)
                                         0.0000  0.0000  0.9928 -0.0004  0.0000
                                         0.0000  0.0000  0.0000  0.0000  0.0000
                                         0.0000  0.0000  0.0000  0.0000  0.0000
                                         0.1195  0.0002  0.0002  0.0000  0.0000
                                         0.0000 -0.0040 -0.0033
   8. (0.99948) LP ( 1) O  2            s( 47.42%)p 1.11( 52.53%)d 0.00(  0.04%)
                                         0.0000  0.6883 -0.0215  0.0056 -0.0001
                                         0.0000  0.0000  0.0000  0.0000  0.0000
                                         0.0000  0.7244  0.0219  0.0070  0.0000
                                         0.0000  0.0000 -0.0015 -0.0210
   9. (0.99930) LP ( 2) O  2            s(  0.00%)p 1.00( 99.92%)d 0.00(  0.08%)
                                         0.0000  0.0000  0.0000  0.0000  0.0000
                                         0.9992  0.0253 -0.0032  0.0000  0.0000
                                         0.0000  0.0000  0.0000  0.0000  0.0000
                                        -0.0291  0.0000  0.0000  0.0000
  10. (0.99982) BD ( 1) O  2- H  3
               ( 75.97%)   0.8716* O  2 s( 26.30%)p 2.79( 73.49%)d 0.01(  0.21%)
                                         0.0000  0.5126  0.0144 -0.0053  0.0000
                                         0.0000  0.0000  0.0000  0.7052 -0.0340
                                        -0.0020 -0.4862  0.0025  0.0010  0.0000
                                         0.0000 -0.0385 -0.0201  0.0159
               ( 24.03%)   0.4903* H  3 s( 99.77%)p 0.00(  0.23%)
                                         0.9989  0.0011  0.0012  0.0000 -0.0401
                                         0.0260
  11. (0.99982) BD ( 1) O  2- H  4
               ( 75.97%)   0.8716* O  2 s( 26.30%)p 2.79( 73.49%)d 0.01(  0.21%)
                                         0.0000  0.5126  0.0144 -0.0053  0.0000
                                         0.0000  0.0000  0.0000 -0.7052  0.0340
                                         0.0020 -0.4862  0.0025  0.0010  0.0000
                                         0.0000  0.0385 -0.0201  0.0159
               ( 24.03%)   0.4903* H  4 s( 99.77%)p 0.00(  0.23%)
                                         0.9989  0.0011  0.0012  0.0000  0.0401
                                         0.0260
 ---------------- non-Lewis ----------------------------------------------------
  12. (0.00029) BD*( 1) O  2- H  3
               ( 24.03%)   0.4903* O  2 s( 26.30%)p 2.79( 73.49%)d 0.01(  0.21%)
                                         0.0000 -0.5126 -0.0144  0.0053  0.0000
                                         0.0000  0.0000  0.0000 -0.7052  0.0340
                                         0.0020  0.4862 -0.0025 -0.0010  0.0000
                                         0.0000  0.0385  0.0201 -0.0159
               ( 75.97%)  -0.8716* H  3 s( 99.77%)p 0.00(  0.23%)
                                        -0.9989 -0.0011 -0.0012  0.0000  0.0401
                                        -0.0260
  13. (0.00029) BD*( 1) O  2- H  4
               ( 24.03%)   0.4903* O  2 s( 26.30%)p 2.79( 73.49%)d 0.01(  0.21%)
                                         0.0000 -0.5126 -0.0144  0.0053  0.0000
                                         0.0000  0.0000  0.0000  0.7052 -0.0340
                                        -0.0020  0.4862 -0.0025 -0.0010  0.0000
                                         0.0000 -0.0385  0.0201 -0.0159
               ( 75.97%)  -0.8716* H  4 s( 99.77%)p 0.00(  0.23%)
                                        -0.9989 -0.0011 -0.0012  0.0000 -0.0401
                                        -0.0260
  14. (0.00024) RY ( 1)Na  1            s( 14.01%)p 6.14( 85.96%)d 0.00(  0.04%)
                                         0.0000  0.0000  0.1114  0.3392 -0.1123
                                         0.0005  0.0000  0.0000  0.0000  0.0000
                                         0.0000  0.0000  0.0000  0.0000  0.0000
                                        -0.9243 -0.0090  0.0715  0.0000  0.0000
                                         0.0000  0.0142 -0.0136
  15. (0.00007) RY ( 2)Na  1            s(  0.00%)p 1.00( 99.58%)d 0.00(  0.42%)
  16. (0.00005) RY ( 3)Na  1            s( 38.42%)p 0.79( 30.54%)d 0.81( 31.04%)
  17. (0.00005) RY ( 4)Na  1            s(  0.00%)p 1.00( 73.84%)d 0.35( 26.16%)
  18. (0.00000) RY ( 5)Na  1            s(  0.00%)p 1.00( 44.60%)d 1.24( 55.40%)
  19. (0.00000) RY ( 6)Na  1            s( 37.87%)p 0.16(  5.92%)d 1.48( 56.21%)
  20. (0.00000) RY ( 7)Na  1            s(  0.00%)p 1.00( 89.18%)d 0.12( 10.82%)
  21. (0.00000) RY ( 8)Na  1            s(  0.00%)p 1.00( 28.71%)d 2.48( 71.28%)
  22. (0.00000) RY ( 9)Na  1            s(  0.04%)p99.99( 69.37%)d99.99( 30.59%)
  23. (0.00000) RY (10)Na  1            s( 13.12%)p 4.62( 60.65%)d 2.00( 26.23%)
  24. (0.00000) RY (11)Na  1            s( 54.62%)p 0.76( 41.41%)d 0.07(  3.96%)
  25. (0.00000) RY (12)Na  1            s( 65.34%)p 0.45( 29.21%)d 0.08(  5.45%)
  26. (0.00000) RY (13)Na  1            s( 33.00%)p 1.85( 61.01%)d 0.18(  5.99%)
  27. (0.00000) RY (14)Na  1            s( 44.44%)p 0.96( 42.53%)d 0.29( 13.03%)
  28. (0.00000) RY (15)Na  1            s(  0.57%)p45.94( 26.20%)d99.99( 73.23%)
  29. (0.00000) RY (16)Na  1            s(  0.00%)p 1.00( 11.08%)d 8.02( 88.92%)
  30. (0.00000) RY (17)Na  1            s(  0.00%)p 1.00( 98.76%)d 0.01(  1.24%)
  31. (0.01978) RY ( 1) O  2            s( 83.14%)p 0.20( 16.83%)d 0.00(  0.03%)
                                         0.0000  0.0065  0.9114  0.0256 -0.0001
                                         0.0000  0.0000  0.0000  0.0000  0.0000
                                         0.0000  0.0326 -0.4066  0.0435  0.0000
                                         0.0000  0.0000 -0.0175  0.0054
  32. (0.00000) RY ( 2) O  2            s( 13.25%)p 1.86( 24.59%)d 4.69( 62.15%)
  33. (0.00000) RY ( 3) O  2            s(  0.00%)p 1.00( 66.80%)d 0.50( 33.20%)
  34. (0.00000) RY ( 4) O  2            s(  0.00%)p 1.00(  0.80%)d99.99( 99.20%)
  35. (0.00000) RY ( 5) O  2            s(  0.01%)p 1.00( 49.41%)d 1.02( 50.58%)
  36. (0.00000) RY ( 6) O  2            s(  8.17%)p 1.71( 13.95%)d 9.53( 77.88%)
  37. (0.00000) RY ( 7) O  2            s(  0.00%)p 1.00( 88.97%)d 0.12( 11.03%)
  38. (0.00000) RY ( 8) O  2            s( 66.84%)p 0.19( 13.00%)d 0.30( 20.16%)
  39. (0.00000) RY ( 9) O  2            s( 87.57%)p 0.03(  2.58%)d 0.11(  9.86%)
  40. (0.00000) RY (10) O  2            s( 35.09%)p 1.36( 47.74%)d 0.49( 17.17%)
  41. (0.00000) RY (11) O  2            s(  0.00%)p 1.00( 43.50%)d 1.30( 56.50%)
  42. (0.00000) RY (12) O  2            s(  0.00%)p 1.00( 75.79%)d 0.32( 24.21%)
  43. (0.00000) RY (13) O  2            s(  4.76%)p19.72( 93.85%)d 0.29(  1.39%)
  44. (0.00000) RY (14) O  2            s(  1.17%)p53.73( 62.76%)d30.88( 36.07%)
  45. (0.00032) RY ( 1) H  3            s(  0.00%)p 1.00(100.00%)
                                         0.0000  0.0000  0.0000  1.0000  0.0000
                                         0.0000
  46. (0.00022) RY ( 2) H  3            s( 35.44%)p 1.82( 64.56%)
                                         0.0008  0.5725  0.1633  0.0000 -0.4066
                                        -0.6930
  47. (0.00005) RY ( 3) H  3            s( 73.58%)p 0.36( 26.42%)
  48. (0.00000) RY ( 4) H  3            s( 52.32%)p 0.91( 47.68%)
  49. (0.00000) RY ( 5) H  3            s( 38.89%)p 1.57( 61.11%)
  50. (0.00032) RY ( 1) H  4            s(  0.00%)p 1.00(100.00%)
                                         0.0000  0.0000  0.0000  1.0000  0.0000
                                         0.0000
  51. (0.00022) RY ( 2) H  4            s( 35.44%)p 1.82( 64.56%)
                                         0.0008  0.5725  0.1633  0.0000  0.4066
                                        -0.6930
  52. (0.00005) RY ( 3) H  4            s( 73.58%)p 0.36( 26.42%)
  53. (0.00000) RY ( 4) H  4            s( 52.32%)p 0.91( 47.68%)
  54. (0.00000) RY ( 5) H  4            s( 38.89%)p 1.57( 61.11%)


 NHO DIRECTIONALITY AND BOND BENDING (deviation from line of nuclear centers at
                                      the position of maximum hybrid amplitude)

         [Thresholds for printing:  angular deviation  >  1.0 degree]
                                    p- or d-character  > 25.0%
                                    orbital occupancy  >  0.10e

                        Line of Centers        Hybrid 1             Hybrid 2
                        ---------------  -------------------  ------------------
           NBO            Theta   Phi    Theta   Phi    Dev   Theta   Phi    Dev
 ===============================================================================
   9. LP ( 2) O  2          --     --     90.4  180.0   --      --     --    --
  10. BD ( 1) O  2- H  3  126.2   90.0   124.8   90.0   1.5     --     --    --
  11. BD ( 1) O  2- H  4  126.2  270.0   124.8  270.0   1.5     --     --    --


 SECOND ORDER PERTURBATION THEORY ANALYSIS OF FOCK MATRIX IN NBO BASIS

     Threshold for printing:   0.25 kcal/mol
    (Intermolecular threshold: 0.03 kcal/mol)
                                                          E(2) E(NL)-E(L) F(L,NL)
      Donor (L) NBO              Acceptor (NL) NBO      kcal/mol   a.u.    a.u.
 ===============================================================================

 within unit  1
    7. LP ( 1)Na  1            14. RY ( 1)Na  1            0.67    0.38   0.020

 from unit  1 to unit  2
    7. LP ( 1)Na  1            12. BD*( 1) O  2- H  3      0.32    0.95   0.022
    7. LP ( 1)Na  1            13. BD*( 1) O  2- H  4      0.32    0.95   0.022
    7. LP ( 1)Na  1            31. RY ( 1) O  2            8.55    0.63   0.092
    7. LP ( 1)Na  1            38. RY ( 8) O  2            0.12    2.74   0.023
    7. LP ( 1)Na  1            39. RY ( 9) O  2            0.33    2.84   0.039
    7. LP ( 1)Na  1            43. RY (13) O  2            0.51    1.44   0.034
    7. LP ( 1)Na  1            47. RY ( 3) H  3            0.07    1.57   0.013
    7. LP ( 1)Na  1            52. RY ( 3) H  4            0.07    1.57   0.013

 from unit  2 to unit  1
    8. LP ( 1) O  2            14. RY ( 1)Na  1            0.17    1.08   0.017
    9. LP ( 2) O  2            15. RY ( 2)Na  1            0.03    0.65   0.005
   10. BD ( 1) O  2- H  3      14. RY ( 1)Na  1            0.09    1.23   0.013
   11. BD ( 1) O  2- H  4      14. RY ( 1)Na  1            0.09    1.23   0.013

 within unit  2
    8. LP ( 1) O  2            46. RY ( 2) H  3            0.26    2.71   0.034
    8. LP ( 1) O  2            51. RY ( 2) H  4            0.26    2.71   0.034
    9. LP ( 2) O  2            45. RY ( 1) H  3            0.67    3.22   0.059
    9. LP ( 2) O  2            50. RY ( 1) H  4            0.67    3.22   0.059


 NATURAL BOND ORBITALS (Summary):

                                                     Principal Delocalizations
           NBO                 Occupancy    Energy   (geminal,vicinal,remote)
 ===============================================================================
 Molecular unit  1  (Na)
 ------ Lewis --------------------------------------
    1. CR ( 1)Na  1             1.00000   -40.39856
    2. CR ( 2)Na  1             1.00000    -2.85239
    3. CR ( 3)Na  1             0.99999    -1.50225
    4. CR ( 4)Na  1             0.99999    -1.50248
    5. CR ( 5)Na  1             0.99999    -1.50199
    7. LP ( 1)Na  1             0.97965    -0.14503  31(r),14(g),43(r),39(r)
                                                     12(r),13(r),38(r),47(r)
                                                     52(r)
 ------ non-Lewis ----------------------------------
   14. RY ( 1)Na  1             0.00024     0.23560
   15. RY ( 2)Na  1             0.00007     0.08540
   16. RY ( 3)Na  1             0.00005     0.64567
   17. RY ( 4)Na  1             0.00005     0.32298
   18. RY ( 5)Na  1             0.00000     0.40362
   19. RY ( 6)Na  1             0.00000     0.59076
   20. RY ( 7)Na  1             0.00000     0.25527
   21. RY ( 8)Na  1             0.00000     0.44106
   22. RY ( 9)Na  1             0.00000     0.19520
   23. RY (10)Na  1             0.00000     0.25063
   24. RY (11)Na  1             0.00000     0.17420
   25. RY (12)Na  1             0.00000     0.34502
   26. RY (13)Na  1             0.00000     0.23967
   27. RY (14)Na  1             0.00000     0.23300
   28. RY (15)Na  1             0.00000     0.39714
   29. RY (16)Na  1             0.00000     0.43343
   30. RY (17)Na  1             0.00000     0.05678
          -------------------------------
                 Total Lewis    5.97963  ( 99.9932%)
           Valence non-Lewis    0.00000  (  0.0000%)
           Rydberg non-Lewis    0.00041  (  0.0068%)
          -------------------------------
               Total unit  1    5.98004  (100.0000%)
              Charge unit  1   -0.48004

 Molecular unit  2  (H2O)
 ------ Lewis --------------------------------------
    6. CR ( 1) O  2             1.00000   -20.62963
    8. LP ( 1) O  2             0.99948    -0.84458  46(v),51(v),14(r)
    9. LP ( 2) O  2             0.99930    -0.56039  45(v),50(v),15(r)
   10. BD ( 1) O  2- H  3       0.99982    -0.99489  14(r)
   11. BD ( 1) O  2- H  4       0.99982    -0.99489  14(r)
 ------ non-Lewis ----------------------------------
   12. BD*( 1) O  2- H  3       0.00029     0.80274
   13. BD*( 1) O  2- H  4       0.00029     0.80274
   31. RY ( 1) O  2             0.01978     0.48265
   32. RY ( 2) O  2             0.00000     1.69667
   33. RY ( 3) O  2             0.00000     0.91745
   34. RY ( 4) O  2             0.00000     2.08455
   35. RY ( 5) O  2             0.00000     2.63463
   36. RY ( 6) O  2             0.00000     1.96027
   37. RY ( 7) O  2             0.00000     1.36321
   38. RY ( 8) O  2             0.00000     2.59963
   39. RY ( 9) O  2             0.00000     2.69968
   40. RY (10) O  2             0.00000     1.68019
   41. RY (11) O  2             0.00000     1.42336
   42. RY (12) O  2             0.00000     1.38833
   43. RY (13) O  2             0.00000     1.29949
   44. RY (14) O  2             0.00000     1.04068
   45. RY ( 1) H  3             0.00032     2.65510
   46. RY ( 2) H  3             0.00022     1.86303
   47. RY ( 3) H  3             0.00005     1.42251
   48. RY ( 4) H  3             0.00000     1.66100
   49. RY ( 5) H  3             0.00000     2.32093
   50. RY ( 1) H  4             0.00032     2.65510
   51. RY ( 2) H  4             0.00022     1.86303
   52. RY ( 3) H  4             0.00005     1.42251
   53. RY ( 4) H  4             0.00000     1.66100
   54. RY ( 5) H  4             0.00000     2.32093
          -------------------------------
                 Total Lewis    4.99843  ( 99.5711%)
           Valence non-Lewis    0.00057  (  0.0114%)
           Rydberg non-Lewis    0.02096  (  0.4175%)
          -------------------------------
               Total unit  2    5.01996  (100.0000%)
              Charge unit  2   -0.01996


 ***************************************************
 *******         Beta  spin orbitals         *******
 ***************************************************


 NATURAL POPULATIONS:  Natural atomic orbital occupancies

  NAO Atom No lang   Type(AO)    Occupancy      Energy
 -------------------------------------------------------
   1   Na  1  s      Cor( 1s)     1.00000     -40.39668
   2   Na  1  s      Cor( 2s)     1.00000      -2.84703
   3   Na  1  s      Val( 3s)     0.00619       0.04816
   4   Na  1  s      Ryd( 5s)     0.00003       0.33313
   5   Na  1  s      Ryd( 6s)     0.00001       0.50948
   6   Na  1  s      Ryd( 4s)     0.00000       0.16437
   7   Na  1  px     Cor( 2p)     1.00000      -1.50047
   8   Na  1  px     Ryd( 4p)     0.00002       0.13544
   9   Na  1  px     Ryd( 5p)     0.00000       0.21695
  10   Na  1  px     Ryd( 3p)     0.00000       0.03434
  11   Na  1  py     Cor( 2p)     1.00000      -1.50071
  12   Na  1  py     Ryd( 4p)     0.00005       0.15330
  13   Na  1  py     Ryd( 5p)     0.00000       0.22069
  14   Na  1  py     Ryd( 3p)     0.00000       0.04924
  15   Na  1  pz     Cor( 2p)     0.99999      -1.49957
  16   Na  1  pz     Ryd( 4p)     0.00004       0.24348
  17   Na  1  pz     Ryd( 5p)     0.00001       0.36277
  18   Na  1  pz     Ryd( 3p)     0.00000       0.08039
  19   Na  1  dxy    Ryd( 3d)     0.00000       0.50248
  20   Na  1  dxz    Ryd( 3d)     0.00000       0.58651
  21   Na  1  dyz    Ryd( 3d)     0.00002       0.66611
  22   Na  1  dx2y2  Ryd( 3d)     0.00000       0.50627
  23   Na  1  dz2    Ryd( 3d)     0.00001       0.82737

  24    O  2  s      Cor( 1s)     1.00000     -20.62892
  25    O  2  s      Val( 2s)     0.86814      -1.08164
  26    O  2  s      Ryd( 3s)     0.00070       0.46535
  27    O  2  s      Ryd( 4s)     0.00008       1.45669
  28    O  2  s      Ryd( 5s)     0.00000       4.40196
  29    O  2  px     Val( 2p)     0.99791      -0.55787
  30    O  2  px     Ryd( 3p)     0.00056       0.51930
  31    O  2  px     Ryd( 4p)     0.00001       1.09617
  32    O  2  py     Val( 2p)     0.75221      -0.39786
  33    O  2  py     Ryd( 3p)     0.00183       0.72125
  34    O  2  py     Ryd( 4p)     0.00000       1.23052
  35    O  2  pz     Val( 2p)     0.88707      -0.50293
  36    O  2  pz     Ryd( 3p)     0.00031       0.68481
  37    O  2  pz     Ryd( 4p)     0.00007       1.06982
  38    O  2  dxy    Ryd( 3d)     0.00000       2.09863
  39    O  2  dxz    Ryd( 3d)     0.00087       2.07609
  40    O  2  dyz    Ryd( 3d)     0.00224       2.90349
  41    O  2  dx2y2  Ryd( 3d)     0.00062       2.47350
  42    O  2  dz2    Ryd( 3d)     0.00084       2.12176

  43    H  3  s      Ryd( 2s)     0.23898       0.34845
  44    H  3  s      Val( 1s)     0.00006       0.17116
  45    H  3  s      Ryd( 3s)     0.00002       0.82340
  46    H  3  px     Ryd( 2p)     0.00032       2.65551
  47    H  3  py     Ryd( 2p)     0.00043       3.27273
  48    H  3  pz     Ryd( 2p)     0.00028       3.03115

  49    H  4  s      Ryd( 2s)     0.23898       0.34845
  50    H  4  s      Val( 1s)     0.00006       0.17116
  51    H  4  s      Ryd( 3s)     0.00002       0.82340
  52    H  4  px     Ryd( 2p)     0.00032       2.65551
  53    H  4  py     Ryd( 2p)     0.00043       3.27273
  54    H  4  pz     Ryd( 2p)     0.00028       3.03115


 Summary of Natural Population Analysis:

                                     Natural Population
             Natural    ---------------------------------------------
  Atom No    Charge        Core      Valence    Rydberg      Total
 --------------------------------------------------------------------
   Na  1    0.49363      4.99998     0.00619    0.00020     5.00637
    O  2   -0.51346      1.00000     3.50533    0.00813     4.51346
    H  3    0.25991      0.00000     0.00006    0.24002     0.24009
    H  4    0.25991      0.00000     0.00006    0.24002     0.24009
 ====================================================================
 * Total *  0.50000      5.99998     3.51165    0.48837    10.00000

                                 Natural Population
 ---------------------------------------------------------
   Core                       5.99998 ( 99.9997% of    6)
   Valence                    3.51165 ( 87.7912% of    4)
   Natural Minimal Basis      9.51163 ( 95.1163% of   10)
   Natural Rydberg Basis      0.48837 (  4.8837% of   10)
 ---------------------------------------------------------

    Atom No         Natural Electron Configuration
 ----------------------------------------------------------------------------
     Na  1      [core]3s( 0.01)
      O  2      [core]2s( 0.87)2p( 2.64)
      H  3            2s( 0.24)
      H  4            2s( 0.24)


 NATURAL BOND ORBITAL ANALYSIS, beta spin orbitals:

 User-requested molecular units:
   1. <Na1>
   2. <O2,H3,H4>

                            Occupancies       Lewis Structure    Low   High
         Max    Occ     -------------------  -----------------   occ   occ
  Cycle  Ctr   Thresh    Lewis   non-Lewis     CR  BD  nC  LP    (L)   (NL)
 ============================================================================
    1     2     0.95     9.99244   0.00756      6   2   0   2     0      0
    2     2     0.76     9.65365   0.34635      6   1   0   3     0      1
    3     2     0.75     9.51343   0.48657      6   0   0   4     0      2
    4     2     0.95     9.99244   0.00756      6   2   0   2     0      0
 ----------------------------------------------------------------------------

 Structure accepted: No low occupancy Lewis orbitals

 -------------------------------------------------------
   Core                      5.99998 (100.000% of   6)
   Valence Lewis             3.99245 ( 99.811% of   4)
  ==================      =============================
   Total Lewis               9.99244 ( 99.924% of  10)
  -----------------------------------------------------
   Valence non-Lewis         0.00630 (  0.063% of  10)
   Rydberg non-Lewis         0.00127 (  0.013% of  10)
  ==================      =============================
   Total non-Lewis           0.00756 (  0.076% of  10)
 -------------------------------------------------------


     (Occupancy)   Bond orbital / Coefficients / Hybrids
 ------------------ Lewis ------------------------------------------------------
   1. (1.00000) CR ( 1)Na  1            s(100.00%)
                                         1.0000  0.0000  0.0000  0.0000  0.0000
                                         0.0000  0.0000  0.0000  0.0000  0.0000
                                         0.0000  0.0000  0.0000  0.0000  0.0000
                                         0.0000  0.0000  0.0000  0.0000  0.0000
                                         0.0000  0.0000  0.0000
   2. (1.00000) CR ( 2)Na  1            s(100.00%)
                                         0.0000  1.0000  0.0000  0.0000  0.0000
                                         0.0000  0.0000  0.0000  0.0000  0.0000
                                         0.0000  0.0000  0.0000  0.0000  0.0000
                                         0.0000  0.0000  0.0000  0.0000  0.0000
                                         0.0000  0.0000  0.0000
   3. (1.00000) CR ( 3)Na  1            s(  0.00%)p 1.00(100.00%)
                                         0.0000  0.0000  0.0000  0.0000  0.0000
                                         0.0000  1.0000  0.0000  0.0000  0.0000
                                         0.0000  0.0000  0.0000  0.0000  0.0000
                                         0.0000  0.0000  0.0000  0.0000  0.0000
                                         0.0000  0.0000  0.0000
   4. (1.00000) CR ( 4)Na  1            s(  0.00%)p 1.00(100.00%)
                                         0.0000  0.0000  0.0000  0.0000  0.0000
                                         0.0000  0.0000  0.0000  0.0000  0.0000
                                         1.0000  0.0000  0.0000  0.0000  0.0000
                                         0.0000  0.0000  0.0000  0.0000  0.0000
                                         0.0000  0.0000  0.0000
   5. (0.99999) CR ( 5)Na  1            s(  0.00%)p 1.00(100.00%)
                                         0.0000  0.0000  0.0000  0.0000  0.0000
                                         0.0000  0.0000  0.0000  0.0000  0.0000
                                         0.0000  0.0000  0.0000  0.0000  1.0000
                                         0.0000  0.0000  0.0000  0.0000  0.0000
                                         0.0000  0.0000  0.0000
   6. (1.00000) CR ( 1) O  2            s(100.00%)
                                         1.0000  0.0000  0.0000  0.0000  0.0000
                                         0.0000  0.0000  0.0000  0.0000  0.0000
                                         0.0000  0.0000  0.0000  0.0000  0.0000
                                         0.0000  0.0000  0.0000  0.0000
   7. (0.99934) LP ( 1) O  2            s(  0.00%)p 1.00( 99.91%)d 0.00(  0.09%)
                                         0.0000  0.0000  0.0000  0.0000  0.0000
                                         0.9993  0.0237 -0.0025  0.0000  0.0000
                                         0.0000  0.0000  0.0000  0.0000  0.0000
                                        -0.0294  0.0000  0.0000  0.0000
   8. (0.99456) LP ( 2) O  2            s( 45.63%)p 1.19( 54.32%)d 0.00(  0.05%)
                                         0.0000  0.6753 -0.0146  0.0065  0.0000
                                         0.0000  0.0000  0.0000  0.0000  0.0000
                                         0.0000  0.7368  0.0173  0.0082  0.0000
                                         0.0000  0.0000 -0.0012 -0.0214
   9. (0.99927) BD ( 1) O  2- H  3
               ( 76.03%)   0.8720* O  2 s( 27.19%)p 2.67( 72.59%)d 0.01(  0.21%)
                                         0.0000  0.5211  0.0179 -0.0051  0.0000
                                         0.0000  0.0000  0.0000  0.7052 -0.0348
                                        -0.0017 -0.4769  0.0021  0.0011  0.0000
                                         0.0000 -0.0385 -0.0201  0.0157
               ( 23.97%)   0.4896* H  3 s( 99.77%)p 0.00(  0.23%)
                                         0.9988 -0.0011 -0.0011  0.0000 -0.0403
                                         0.0264
  10. (0.99927) BD ( 1) O  2- H  4
               ( 76.03%)   0.8720* O  2 s( 27.19%)p 2.67( 72.59%)d 0.01(  0.21%)
                                         0.0000  0.5211  0.0179 -0.0051  0.0000
                                         0.0000  0.0000  0.0000 -0.7052  0.0348
                                         0.0017 -0.4769  0.0021  0.0011  0.0000
                                         0.0000  0.0385 -0.0201  0.0157
               ( 23.97%)   0.4896* H  4 s( 99.77%)p 0.00(  0.23%)
                                         0.9988 -0.0011 -0.0011  0.0000  0.0403
                                         0.0264
 ---------------- non-Lewis ----------------------------------------------------
  11. (0.00624) LV ( 1)Na  1            s( 99.58%)p 0.00(  0.41%)d 0.00(  0.01%)
                                         0.0000  0.0000  0.9959  0.0622 -0.0036
                                        -0.0021  0.0000  0.0000  0.0000  0.0000
                                         0.0000  0.0000  0.0000  0.0000  0.0000
                                        -0.0620 -0.0089  0.0130  0.0000  0.0000
                                         0.0000 -0.0013 -0.0109
  12. (0.00003) BD*( 1) O  2- H  3
               ( 23.97%)   0.4896* O  2 s( 27.19%)p 2.67( 72.59%)d 0.01(  0.21%)
               ( 76.03%)  -0.8720* H  3 s( 99.77%)p 0.00(  0.23%)
  13. (0.00003) BD*( 1) O  2- H  4
               ( 23.97%)   0.4896* O  2 s( 27.19%)p 2.67( 72.59%)d 0.01(  0.21%)
               ( 76.03%)  -0.8720* H  4 s( 99.77%)p 0.00(  0.23%)
  14. (0.00007) RY ( 1)Na  1            s(  0.00%)p 1.00( 78.19%)d 0.28( 21.81%)
  15. (0.00005) RY ( 2)Na  1            s( 23.66%)p 2.45( 57.96%)d 0.78( 18.38%)
  16. (0.00002) RY ( 3)Na  1            s(  0.00%)p 1.00( 99.92%)d 0.00(  0.08%)
  17. (0.00000) RY ( 4)Na  1            s(  4.12%)p 4.33( 17.87%)d18.92( 78.01%)
  18. (0.00000) RY ( 5)Na  1            s(  0.67%)p 8.39(  5.60%)d99.99( 93.74%)
  19. (0.00000) RY ( 6)Na  1            s(  0.86%)p99.99( 94.87%)d 4.97(  4.27%)
  20. (0.00000) RY ( 7)Na  1            s( 34.85%)p 1.70( 59.18%)d 0.17(  5.97%)
  21. (0.00000) RY ( 8)Na  1            s( 65.54%)p 0.46( 30.18%)d 0.07(  4.28%)
  22. (0.00000) RY ( 9)Na  1            s( 80.56%)p 0.11(  9.18%)d 0.13( 10.26%)
  23. (0.00000) RY (10)Na  1            s( 32.63%)p 0.69( 22.43%)d 1.38( 44.94%)
  24. (0.00000) RY (11)Na  1            s(  0.00%)p 1.00( 83.22%)d 0.20( 16.78%)
  25. (0.00000) RY (12)Na  1            s(  0.00%)p 1.00( 23.77%)d 3.21( 76.23%)
  26. (0.00000) RY (13)Na  1            s( 52.26%)p 0.81( 42.52%)d 0.10(  5.23%)
  27. (0.00000) RY (14)Na  1            s(  4.68%)p16.88( 78.96%)d 3.50( 16.36%)
  28. (0.00000) RY (15)Na  1            s(  0.38%)p99.99( 62.73%)d98.05( 36.89%)
  29. (0.00000) RY (16)Na  1            s(  0.06%)p99.99( 47.98%)d99.99( 51.96%)
  30. (0.00000) RY (17)Na  1            s(  0.17%)p99.99( 85.04%)d88.55( 14.80%)
  31. (0.00001) RY ( 1) O  2            s( 36.97%)p 1.13( 41.71%)d 0.58( 21.33%)
  32. (0.00000) RY ( 2) O  2            s( 36.33%)p 0.07(  2.38%)d 1.69( 61.29%)
  33. (0.00000) RY ( 3) O  2            s(  0.34%)p99.99( 96.13%)d10.25(  3.52%)
  34. (0.00000) RY ( 4) O  2            s(  0.00%)p 1.00( 99.81%)d 0.00(  0.19%)
  35. (0.00000) RY ( 5) O  2            s( 24.25%)p 0.25(  6.15%)d 2.87( 69.60%)
  36. (0.00000) RY ( 6) O  2            s(  0.00%)p 1.00(  0.06%)d99.99( 99.94%)
  37. (0.00000) RY ( 7) O  2            s(  0.00%)p 1.00( 62.94%)d 0.59( 37.06%)
  38. (0.00000) RY ( 8) O  2            s(  2.04%)p31.91( 65.25%)d15.99( 32.70%)
  39. (0.00000) RY ( 9) O  2            s( 75.14%)p 0.20( 15.30%)d 0.13(  9.57%)
  40. (0.00000) RY (10) O  2            s( 91.23%)p 0.02(  2.00%)d 0.07(  6.76%)
  41. (0.00000) RY (11) O  2            s(  0.00%)p 1.00( 32.85%)d 2.04( 67.15%)
  42. (0.00000) RY (12) O  2            s( 28.37%)p 1.55( 44.11%)d 0.97( 27.52%)
  43. (0.00000) RY (13) O  2            s(  0.00%)p 1.00( 37.28%)d 1.68( 62.72%)
  44. (0.00000) RY (14) O  2            s(  5.31%)p17.83( 94.61%)d 0.02(  0.08%)
  45. (0.00032) RY ( 1) H  3            s(  0.00%)p 1.00(100.00%)
                                         0.0000  0.0000  0.0000  1.0000  0.0000
                                         0.0000
  46. (0.00020) RY ( 2) H  3            s( 25.91%)p 2.86( 74.09%)
                                         0.0030  0.4959  0.1146  0.0000 -0.4312
                                        -0.7450
  47. (0.00004) RY ( 3) H  3            s( 80.10%)p 0.25( 19.90%)
  48. (0.00000) RY ( 4) H  3            s( 74.10%)p 0.35( 25.90%)
  49. (0.00000) RY ( 5) H  3            s( 20.12%)p 3.97( 79.88%)
  50. (0.00032) RY ( 1) H  4            s(  0.00%)p 1.00(100.00%)
                                         0.0000  0.0000  0.0000  1.0000  0.0000
                                         0.0000
  51. (0.00020) RY ( 2) H  4            s( 25.91%)p 2.86( 74.09%)
                                         0.0030  0.4959  0.1146  0.0000  0.4312
                                        -0.7450
  52. (0.00004) RY ( 3) H  4            s( 80.10%)p 0.25( 19.90%)
  53. (0.00000) RY ( 4) H  4            s( 74.10%)p 0.35( 25.90%)
  54. (0.00000) RY ( 5) H  4            s( 20.12%)p 3.97( 79.88%)


 NHO DIRECTIONALITY AND BOND BENDING (deviation from line of nuclear centers at
                                      the position of maximum hybrid amplitude)

         [Thresholds for printing:  angular deviation  >  1.0 degree]
                                    p- or d-character  > 25.0%
                                    orbital occupancy  >  0.10e

                        Line of Centers        Hybrid 1             Hybrid 2
                        ---------------  -------------------  ------------------
           NBO            Theta   Phi    Theta   Phi    Dev   Theta   Phi    Dev
 ===============================================================================
   7. LP ( 1) O  2          --     --     90.4    0.0   --      --     --    --
   9. BD ( 1) O  2- H  3  126.2   90.0   124.3   90.0   1.9     --     --    --
  10. BD ( 1) O  2- H  4  126.2  270.0   124.3  270.0   1.9     --     --    --


 SECOND ORDER PERTURBATION THEORY ANALYSIS OF FOCK MATRIX IN NBO BASIS

     Threshold for printing:   0.25 kcal/mol
    (Intermolecular threshold: 0.03 kcal/mol)
                                                          E(2) E(NL)-E(L) F(L,NL)
      Donor (L) NBO              Acceptor (NL) NBO      kcal/mol   a.u.    a.u.
 ===============================================================================

 within unit  1
       None above threshold

 from unit  1 to unit  2
       None above threshold

 from unit  2 to unit  1
    8. LP ( 2) O  2            11. LV ( 1)Na  1            4.03    0.88   0.075
    9. BD ( 1) O  2- H  3      11. LV ( 1)Na  1            1.35    1.05   0.047
   10. BD ( 1) O  2- H  4      11. LV ( 1)Na  1            1.35    1.05   0.047

 within unit  2
    7. LP ( 1) O  2            45. RY ( 1) H  3            0.68    3.22   0.059
    7. LP ( 1) O  2            50. RY ( 1) H  4            0.68    3.22   0.059
    8. LP ( 2) O  2            46. RY ( 2) H  3            0.25    2.94   0.034
    8. LP ( 2) O  2            51. RY ( 2) H  4            0.25    2.94   0.034


 NATURAL BOND ORBITALS (Summary):

                                                     Principal Delocalizations
           NBO                 Occupancy    Energy   (geminal,vicinal,remote)
 ===============================================================================
 Molecular unit  1  (Na)
 ------ Lewis --------------------------------------
    1. CR ( 1)Na  1             1.00000   -40.39668
    2. CR ( 2)Na  1             1.00000    -2.84703
    3. CR ( 3)Na  1             1.00000    -1.50047
    4. CR ( 4)Na  1             1.00000    -1.50071
    5. CR ( 5)Na  1             0.99999    -1.49957
 ------ non-Lewis ----------------------------------
   11. LV ( 1)Na  1             0.00624     0.05125
   14. RY ( 1)Na  1             0.00007     0.32291
   15. RY ( 2)Na  1             0.00005     0.74651
   16. RY ( 3)Na  1             0.00002     0.09269
   17. RY ( 4)Na  1             0.00000     0.41175
   18. RY ( 5)Na  1             0.00000     0.47595
   19. RY ( 6)Na  1             0.00000     0.16338
   20. RY ( 7)Na  1             0.00000     0.15856
   21. RY ( 8)Na  1             0.00000     0.16764
   22. RY ( 9)Na  1             0.00000     0.19185
   23. RY (10)Na  1             0.00000     0.67397
   24. RY (11)Na  1             0.00000     0.31158
   25. RY (12)Na  1             0.00000     0.51574
   26. RY (13)Na  1             0.00000     0.42586
   27. RY (14)Na  1             0.00000     0.17457
   28. RY (15)Na  1             0.00000     0.27976
   29. RY (16)Na  1             0.00000     0.36929
   30. RY (17)Na  1             0.00000     0.10721
          -------------------------------
                 Total Lewis    4.99998  ( 99.8725%)
           Valence non-Lewis    0.00624  (  0.1246%)
           Rydberg non-Lewis    0.00015  (  0.0029%)
          -------------------------------
               Total unit  1    5.00637  (100.0000%)
              Charge unit  1    0.49363

 Molecular unit  2  (H2O)
 ------ Lewis --------------------------------------
    6. CR ( 1) O  2             1.00000   -20.62892
    7. LP ( 1) O  2             0.99934    -0.56011  45(v),50(v)
    8. LP ( 2) O  2             0.99456    -0.83054  11(r),46(v),51(v)
    9. BD ( 1) O  2- H  3       0.99927    -0.99982  11(r)
   10. BD ( 1) O  2- H  4       0.99927    -0.99982  11(r)
 ------ non-Lewis ----------------------------------
   12. BD*( 1) O  2- H  3       0.00003     0.80716
   13. BD*( 1) O  2- H  4       0.00003     0.80716
   31. RY ( 1) O  2             0.00001     0.85203
   32. RY ( 2) O  2             0.00000     2.72313
   33. RY ( 3) O  2             0.00000     0.82720
   34. RY ( 4) O  2             0.00000     1.36276
   35. RY ( 5) O  2             0.00000     1.87775
   36. RY ( 6) O  2             0.00000     2.09757
   37. RY ( 7) O  2             0.00000     0.98771
   38. RY ( 8) O  2             0.00000     2.01054
   39. RY ( 9) O  2             0.00000     1.85459
   40. RY (10) O  2             0.00000     2.00305
   41. RY (11) O  2             0.00000     2.10455
   42. RY (12) O  2             0.00000     2.00612
   43. RY (13) O  2             0.00000     1.34440
   44. RY (14) O  2             0.00000     1.25550
   45. RY ( 1) H  3             0.00032     2.65551
   46. RY ( 2) H  3             0.00020     2.10565
   47. RY ( 3) H  3             0.00004     1.18567
   48. RY ( 4) H  3             0.00000     1.11743
   49. RY ( 5) H  3             0.00000     2.86219
   50. RY ( 1) H  4             0.00032     2.65551
   51. RY ( 2) H  4             0.00020     2.10565
   52. RY ( 3) H  4             0.00004     1.18567
   53. RY ( 4) H  4             0.00000     1.11743
   54. RY ( 5) H  4             0.00000     2.86219
          -------------------------------
                 Total Lewis    4.99245  ( 99.9764%)
           Valence non-Lewis    0.00006  (  0.0012%)
           Rydberg non-Lewis    0.00112  (  0.0225%)
          -------------------------------
               Total unit  2    4.99363  (100.0000%)
              Charge unit  2    0.00637

 $CHOOSE
  ALPHA
   LONE 1 1 2 2 END
   BOND S 2 3 S 2 4 END
  END
  BETA
   LONE 2 2 END
   BOND S 2 3 S 2 4 END
  END
 $END

 NBO analysis completed in 0.18 CPU seconds (0 wall seconds)
 Maximum scratch memory used by NBO was 428338 words (3.27 MB)
 Maximum scratch memory used by G16NBO was 14232 words (0.11 MB)


  ---------- Alpha spin NAO deletions ----------

 NEDA: Natural Energy Decomposition Analysis
 Deletion of the NAO Fock matrix elements between orbitals:
    1   2   3   4   5   6   7   8   9  10  11  12  13  14  15  16  17  18  19  20
   21  22  23
 and orbitals:
   24  25  26  27  28  29  30  31  32  33  34  35  36  37  38  39  40  41  42  43
   44  45  46  47  48  49  50  51  52  53  54

 Orbital occupancies:

       Orbital                         No deletions  This deletion    Change
 ------------------------------------------------------------------------------
    1. Na 1( 1s )                        1.00000        1.00000       0.00000
    2. Na 1( 2s )                        1.00000        1.00000       0.00000
    3. Na 1( 3s )                        0.96563        0.99363       0.02800
    4. Na 1( 5s )                        0.00004        0.00065       0.00060
    5. Na 1( 6s )                        0.00001        0.00014       0.00013
    6. Na 1( 4s )                        0.00000        0.00001       0.00001
    7. Na 1( 2px)                        0.99999        0.99999       0.00000
    8. Na 1( 4px)                        0.00006        0.00000      -0.00006
    9. Na 1( 5px)                        0.00000        0.00000       0.00000
   10. Na 1( 3px)                        0.00000        0.00000       0.00000
   11. Na 1( 2py)                        0.99999        0.99999       0.00000
   12. Na 1( 4py)                        0.00003        0.00000      -0.00003
[...]
      2          8           0       -0.000000    0.000000    1.185281
      3          1           0       -0.000000    0.762733    1.744507
      4          1           0        0.000000   -0.762733    1.744507
 ---------------------------------------------------------------------
 Rotational constants (GHZ):         430.9798715           8.4160768           8.2548774

 **********************************************************************

            Population analysis using the SCF Density.

 **********************************************************************

 Orbital symmetries:
 Alpha Orbitals:
       Occupied  (A1) (A1) (B2) (A1) (B1) (A1) (A1) (B2) (B1) (A1)
                 (A1)
       Virtual   (B2) (B1) (B2) (A1) (A1) (B1) (A1) (B2) (B1) (B2)
                 (A1) (A1) (B2) (A1) (A2) (A1) (A1) (B1) (B2) (A1)
                 (B2) (A1) (B1) (B2) (A1) (A1) (A2) (B1) (A1) (A1)
                 (B2) (A1) (B2) (B1) (A2) (A1) (A1) (B2) (A1) (B1)
                 (B2) (A1) (A1)
 Beta  Orbitals:
       Occupied  (A1) (A1) (B2) (A1) (B1) (A1) (A1) (B2) (B1) (A1)
       Virtual   (A1) (B2) (B1) (B2) (A1) (A1) (B1) (A1) (B2) (B1)
                 (B2) (A1) (A1) (B2) (A1) (A2) (A1) (A1) (B1) (B2)
                 (A1) (B2) (A1) (B1) (B2) (A1) (A1) (A2) (B1) (A1)
                 (A1) (B2) (A1) (B2) (B1) (A2) (A1) (A1) (B2) (A1)
                 (B1) (B2) (A1) (A1)
 The electronic state is 2-A1.
 Alpha  occ. eigenvalues --  -20.57988  -1.36031  -0.73200  -0.58050  -0.50941
 Alpha  occ. eigenvalues --    0.01088   0.01787   0.01835   0.01944   0.06474
 Alpha  occ. eigenvalues --    0.07536
 Alpha virt. eigenvalues --    0.08137   0.08958   0.09077   0.09826   0.22588
 Alpha virt. eigenvalues --    0.27800   0.29557   0.29816   0.30994   0.34025
 Alpha virt. eigenvalues --    0.35505   0.39556   0.40420   0.45458   0.63705
 Alpha virt. eigenvalues --    0.64298   0.66343   0.68429   0.76923   0.87851
 Alpha virt. eigenvalues --    1.24113   1.28742   1.42923   1.44039   1.49523
 Alpha virt. eigenvalues --    1.67718   1.78595   1.97535   2.05298   2.09171
 Alpha virt. eigenvalues --    2.58414   2.60426   2.93431   2.98403   3.00054
 Alpha virt. eigenvalues --    3.42249   3.79239   3.98063   4.56658   6.19544
 Alpha virt. eigenvalues --    6.20206   6.24732  61.61111
  Beta  occ. eigenvalues --  -20.57988  -1.36031  -0.73200  -0.58050  -0.50941
  Beta  occ. eigenvalues --    0.01088   0.01787   0.01835   0.01944   0.06474
  Beta virt. eigenvalues --    0.07536   0.08137   0.08958   0.09077   0.09826
  Beta virt. eigenvalues --    0.22588   0.27800   0.29557   0.29816   0.30994
  Beta virt. eigenvalues --    0.34025   0.35505   0.39556   0.40420   0.45458
  Beta virt. eigenvalues --    0.63705   0.64298   0.66343   0.68429   0.76923
  Beta virt. eigenvalues --    0.87851   1.24113   1.28742   1.42923   1.44039
  Beta virt. eigenvalues --    1.49523   1.67718   1.78595   1.97535   2.05298
  Beta virt. eigenvalues --    2.09171   2.58414   2.60426   2.93431   2.98403
  Beta virt. eigenvalues --    3.00054   3.42249   3.79239   3.98063   4.56658
  Beta virt. eigenvalues --    6.19544   6.20206   6.24732  61.61111
          Condensed to atoms (all electrons):
               1          2          3          4
     1  Na   0.012918  -0.097664   0.007392   0.007392
     2  O   -0.097664   8.316626   0.292289   0.292289
     3  H    0.007392   0.292289   0.362610  -0.029079
     4  H    0.007392   0.292289  -0.029079   0.362610
          Atomic-Atomic Spin Densities.
               1          2          3          4
     1  Na  -0.000000   0.000000  -0.000000  -0.000000
     2  O    0.000000   0.000000   0.000000   0.000000
     3  H   -0.000000   0.000000  -0.000000  -0.000000
     4  H   -0.000000   0.000000  -0.000000  -0.000000
 Mulliken charges and spin densities:
               1          2
     1  Na  11.069962  -0.000000
     2  O   -0.803539   0.000000
     3  H    0.366788  -0.000000
     4  H    0.366788  -0.000000
 Sum of Mulliken charges =  11.00000  -0.00000
 Mulliken charges and spin densities with hydrogens summed into heavy atoms:
               1          2
     1  Na  11.069962  -0.000000
     2  O   -0.069962   0.000000
         Mulliken charges and spin densities condensed to fragments:
      1     11.069962     -0.000000
      2     -0.069962      0.000000
 Electronic spatial extent (au):  <R**2>=             75.4045
 Charge=             11.0000 electrons
 Dipole moment (field-independent basis, Debye):
    X=              0.0000    Y=              0.0000    Z=             60.1946  Tot=             60.1946
 Quadrupole moment (field-independent basis, Debye-Ang):
   XX=             -7.6375   YY=             -4.1177   ZZ=             72.6100
   XY=             -0.0000   XZ=              0.0000   YZ=             -0.0000
 Traceless Quadrupole moment (field-independent basis, Debye-Ang):
   XX=            -27.9224   YY=            -24.4026   ZZ=             52.3250
   XY=             -0.0000   XZ=              0.0000   YZ=             -0.0000
 Octapole moment (field-independent basis, Debye-Ang**2):
  XXX=              0.0000  YYY=              0.0000  ZZZ=            155.9279  XYY=              0.0000
  XXY=             -0.0000  XXZ=              9.5156  XZZ=              0.0000  YZZ=             -0.0000
  YYZ=             23.4197  XYZ=             -0.0000
 Hexadecapole moment (field-independent basis, Debye-Ang**3):
 XXXX=             -6.9569 YYYY=             -5.7270 ZZZZ=             56.3253 XXXY=             -0.0000
 XXXZ=             -0.0000 YYYX=             -0.0000 YYYZ=             -0.0000 ZZZX=              0.0000
 ZZZY=             -0.0000 XXYY=             -2.4201 XXZZ=            -14.2262 YYZZ=             -5.1235
 XXYZ=             -0.0000 YYXZ=              0.0000 ZZXY=             -0.0000
 N-N= 9.299142780944D+00 E-N=-1.989207756723D+02  KE= 7.578184911198D+01
 --------------------------------------------------------
       Center         ----  Spin Dipole Couplings  ----
                      3XX-RR        3YY-RR        3ZZ-RR
 --------------------------------------------------------
     1   Atom       -0.000001      0.000000      0.000001
     2   Atom        0.000000     -0.000000      0.000000
     3   Atom       -0.000000     -0.000000      0.000000
     4   Atom       -0.000000     -0.000000      0.000000
 --------------------------------------------------------
                        XY            XZ            YZ
 --------------------------------------------------------
     1   Atom       -0.000000     -0.000000     -0.000000
     2   Atom       -0.000000     -0.000000      0.000000
     3   Atom       -0.000000     -0.000000      0.000000
     4   Atom       -0.000000     -0.000000     -0.000000
 --------------------------------------------------------


 ---------------------------------------------------------------------------------
              Anisotropic Spin Dipole Couplings in Principal Axis System
 ---------------------------------------------------------------------------------

       Atom             a.u.   MegaHertz   Gauss  10(-4) cm-1        Axes

              Baa    -0.0000    -0.000    -0.000    -0.000  1.0000 -0.0000 -0.0000
     1 Na(23) Bbb     0.0000     0.000     0.000     0.000 -0.0000  1.0000 -0.0000
              Bcc     0.0000     0.000     0.000     0.000  0.0000  0.0000  1.0000
 
              Baa    -0.0000     0.000     0.000     0.000  0.0000  1.0000 -0.0000
     2 O(17)  Bbb     0.0000    -0.000    -0.000    -0.000  1.0000 -0.0000  0.0000
              Bcc     0.0000    -0.000    -0.000    -0.000  0.0000  0.0000  1.0000
 
              Baa    -0.0000    -0.000    -0.000    -0.000 -0.0000  0.9349 -0.3550
     3 H(1)   Bbb    -0.0000    -0.000    -0.000    -0.000  1.0000  0.0000  0.0000
              Bcc     0.0000     0.000     0.000     0.000 -0.0000  0.3550  0.9349
 
              Baa    -0.0000    -0.000    -0.000    -0.000  0.0000  0.9349  0.3550
     4 H(1)   Bbb    -0.0000    -0.000    -0.000    -0.000  1.0000 -0.0000  0.0000
              Bcc     0.0000     0.000     0.000     0.000 -0.0000 -0.3550  0.9349
 

 ---------------------------------------------------------------------------------

 Running external command "gaunbo7 R"
         input file       "/storage/home/misab/scratch/132636.master/Gau-9073.EIn"
         output file      "/storage/home/misab/scratch/132636.master/Gau-9073.EOu"
         message file     "/storage/home/misab/scratch/132636.master/Gau-9073.EMs"
         fchk file        "/storage/home/misab/scratch/132636.master/Gau-9073.EFC"
         mat. el file     "/storage/home/misab/scratch/132636.master/Gau-9073.EUF"
 Coordinates do not match /B/: Transferring coordinates from /Mol/ to /B/.

 Writing WrtUnf unformatted file "/storage/home/misab/scratch/132636.master/Gau-9073.EUF"
 Gaussian matrix elements                                         Version   2 NLab=11 Len12L=8 Len4L=8
 Write SHELL TO ATOM MAP                   from file      0 offset           0 length                  19 to matrix element file.
 Write SHELL TYPES                         from file      0 offset           0 length                  19 to matrix element file.
 Write NUMBER OF PRIMITIVES PER SHELL      from file      0 offset           0 length                  19 to matrix element file.
 Write PRIMITIVE EXPONENTS                 from file      0 offset           0 length                  42 to matrix element file.
 Write CONTRACTION COEFFICIENTS            from file      0 offset           0 length                  42 to matrix element file.
 Write P(S=P) CONTRACTION COEFFICIENTS     from file      0 offset           0 length                  42 to matrix element file.
 Write COORDINATES OF EACH SHELL           from file      0 offset           0 length                  57 to matrix element file.
 Write BONDS PER ATOM                      from file      0 offset           0 length                   4 to matrix element file.
 Write BONDED ATOMS                        from file      0 offset           0 length                   4 to matrix element file.
 Write BOND TYPES                          from file      0 offset           0 length                   4 to matrix element file.
 Write ONIOM CHARGE/MULT                   from file      0 offset           0 length                  32 to matrix element file.
 Write ONIOM ATOM LAYERS                   from file      0 offset           0 length                   4 to matrix element file.
 Write ONIOM ATOM MODIFIERS                from file      0 offset           0 length                   4 to matrix element file.
 Write ONIOM ATOM TYPES                    from file      0 offset           0 length                   4 to matrix element file.
 Write ONIOM LINK ATOMS                    from file      0 offset           0 length                   4 to matrix element file.
 Write ONIOM LINK CHARGES                  from file      0 offset           0 length                   4 to matrix element file.
 Write ONIOM LINK DISTANCES                from file      0 offset           0 length                  16 to matrix element file.
 Write SYMINF INTS                         from file      0 offset           0 length                  26 to matrix element file.
 Write ROTTR TO SO                         from file      0 offset           0 length                  12 to matrix element file.
 Write GAUSSIAN SCALARS                    from file    501 offset           0 to matrix element file.
 Write OPTIMIZATION FLAGS                  from file      0 offset           0 length                   4 to matrix element file.
 Write INTEGER ISO                         from file      0 offset           0 length                   4 to matrix element file.
 Write INTEGER FRAGMENT                    from file      0 offset           0 length                   4 to matrix element file.
 Write INTEGER SPIN                        from file      0 offset           0 length                   4 to matrix element file.
 Write REAL ZEFFECTIVE                     from file      0 offset           0 length                   4 to matrix element file.
 Write REAL QUADRUPOLEMOMENT               from file      0 offset           0 length                   4 to matrix element file.
 Write REAL GFACTOR                        from file      0 offset           0 length                   4 to matrix element file.
 Write REAL ZNUCLEAR                       from file      0 offset           0 length                   4 to matrix element file.
 Write MULLIKEN CHARGES                    from file      0 offset           0 length                   4 to matrix element file.
 Write NUCLEAR GRADIENT                    from file  10584 offset           0 length                  12 to matrix element file.
 Array NUCLEAR FORCE CONSTANTS              on  file  10585 does not exist.
 Write ELECTRIC DIPOLE MOMENT              from file      0 offset           0 length                   3 to matrix element file.
 Write NON-ADIABATIC COUPLING              from file  10810 offset           0 length                  12 to matrix element file.
 Write ELECTRONS PER FRAGMENT              from file      0 offset           0 length                   8 to matrix element file.
 Write BASIS FUNCTIONS PER FRAGMENT        from file      0 offset           0 length                  96 to matrix element file.
 Write FINITE EM FIELD                     from file  10521 offset           0 length                  35 to matrix element file.
 Write OVERLAP                             from file  10514 offset           0 length                1485 to matrix element file.
 Write CORE HAMILTONIAN ALPHA              from file  10515 offset           0 length                1485 to matrix element file.
 Write CORE HAMILTONIAN BETA               from file  10515 offset        1485 length                1485 to matrix element file.
 Write KINETIC ENERGY                      from file  10516 offset           0 length                1485 to matrix element file.
 Array ORTHOGONAL BASIS                     on  file  10685 does not exist.
 Write DIPOLE INTEGRALS                    from file  10518 offset           0 length                4455 to matrix element file.
 Array DIP VEL INTEGRALS                    on  file  10572 does not exist.
 Array R X DEL INTEGRALS                    on  file  10572 does not exist.
 Write ALPHA ORBITAL ENERGIES              from file      0 offset           0 length                  54 to matrix element file.
 Write BETA ORBITAL ENERGIES               from file      0 offset           0 length                  54 to matrix element file.
 Write ALPHA MO COEFFICIENTS               from file  10524 offset           0 length                2916 to matrix element file.
 Write BETA MO COEFFICIENTS                from file  10526 offset           0 length                2916 to matrix element file.
 Write ALPHA DENSITY MATRIX                from file      0 offset           0 length                1485 to matrix element file.
 Write BETA DENSITY MATRIX                 from file      0 offset           0 length                1485 to matrix element file.
 Write ALPHA FOCK MATRIX                   from file  10536 offset           0 length                1485 to matrix element file.
 Write BETA FOCK MATRIX                    from file  10538 offset           0 length                1485 to matrix element file.
 Write ENERGY-WEIGHTED DENSITY             from file  10571 offset           0 length                1485 to matrix element file.
 Write FRAGMENT DENSITY MATRICES           from file  10774 offset           0 length                5940 to matrix element file.
 Write FRAGMENT OPERATOR MATRICES          from file  10823 offset           0 length               41612 to matrix element file.
 Write ALPHA SCF DENSITY MATRIX            from file      0 offset           0 length                1485 to matrix element file.
 Write BETA SCF DENSITY MATRIX             from file      0 offset           0 length                1485 to matrix element file.
 Write INTEGER PARAMETERS                  from file      0 offset           0 length                   2 to matrix element file.
 No 2e integrals to process.
 Perform NBO analysis...executing G16NBO...


 Natural Energy Decomposition Analysis (Summary):

                                                            Component
                    Energy(wfn)        Energy(wfn)          (kcal/mol)
 ------------------------------------------------------------------------------
 H2ONa          -237.8815329(scf)  -237.8655828(loc)      CT =  -10.009
                                                          ES =  -24.115
                                                         POL =  -19.806
                                                          EX =   -7.635
 1. Na          -161.8027550(def)  -161.8414917(rel) DEF(SE) =   24.308(  1.349)
 2. H2O          -75.9806681(def)   -76.0324201(rel) DEF(SE) =   32.475(  8.778)
                                                              ---------
                                                           E =   -4.782


 Electrical (ES+POL+SE) :    -33.794
   Charge Transfer (CT) :    -10.009
       Core (EX+DEF-SE) :     39.020
                        ------------
  Total Interaction (E) :     -4.782


 Dipole moments:

   1. Na
      Dipole (def):    0.0000(x),   0.0000(y),  -1.1756(z);   1.1756(tot) Debye
      Dipole (rel):    0.0000(x),   0.0000(y),   0.0035(z);   0.0035(tot) Debye
      Dipole (ind):    0.0000(x),   0.0000(y),  -1.1790(z);   1.1790(tot) Debye
   2. H2O
      Dipole (def):    0.0000(x),   0.0000(y),  -2.5168(z);   2.5168(tot) Debye
      Dipole (rel):    0.0000(x),   0.0000(y),  -2.1090(z);   2.1090(tot) Debye
      Dipole (ind):    0.0000(x),   0.0000(y),  -0.4078(z);   0.4078(tot) Debye

 Opening RunExU unformatted file "/storage/home/misab/scratch/132636.master/Gau-9073.EUF"
 Read unf file /storage/home/misab/scratch/132636.master/Gau-9073.EUF:
 Label Gaussian matrix elements                                         IVers= 2 NLab= 2 Version=ES64L-G16RevC.01
 Title Na..OH2 (uhf/6-31++G**)                                         
 NAtoms=     4 NBasis=    54 NBsUse=    54 ICharg=     0 Multip=     2 NE=    21 Len12L=8 Len4L=8 IOpCl= 1 ICGU=112
 GAUSSIAN SCALARS                    NI= 1 NR= 1 NTot=       1 LenBuf=    2 NRI=1 N=    1000
 Recovered energy= -76.0324200962     dipole=      0.000000000000      0.000000000000     23.682370399215
 Unable to Open any file for archive entry.
 1\1\GINC-NODE009\SP\UHF\6-31++G(d,p)\H2Na1O1(2)\MISAB\22-Dec-2022\0\\#
  uhf/6-31++g** neda=2\\Na..OH2 (uhf/6-31++G**)\\0,2\Na,0,0.,0.,-0.3404
 66\O,0,0.,0.,2.02402\H,0,0.,0.762733,2.583246\H,0,0.,-0.762733,2.58324
 6\\Version=ES64L-G16RevC.01\State=2-A1\HF=-76.0324201\S2=0.\S2-1=0.\S2
 A=0.\RMSD=8.467e-09\Dipole=0.,0.,-23.6823704\Quadrupole=-20.7596388,-1
 8.1427461,38.9023849,0.,0.,0.\PG=C02V [C2(O1Na1),SGV(H2)]\\@
 The archive entry for this job was punched.


 I (ERNEST RUTHERFORD) CAME INTO THE ROOM, WHICH WAS HALF DARK, AND PRESENTLY
 SPOTTED LORD KELVIN IN THE AUDIENCE AND REALIZED I WAS IN TROUBLE AT
 THE LAST PART OF MY SPEECH DEALING THE AGE OF THE EARTH, WHERE MY VIEWS
 CONFLICTED WITH HIS.  TO MY RELIEF KELVIN FELL FAST ASLEEP, BUT AS I CAME
 TO THE IMPORTANT POINT, I SAW THE OLD BIRD SIT UP AND COCK A BALEFUL GLANCE
 AT ME! THEN A SUDDEN INSPIRATION CAME AND I SAID LORD KELVIN HAD LIMITED
 THE AGE OF THE EARTH PROVIDED NO NEW SOURCE WAS DISCOVERED. THAT
 PROPHETIC UTTERANCE REFERS TO WHAT WE ARE NOW CONSIDERING TONIGHT, RADIUM!
 BEHOLD!  THE OLD BOY BEAMED UPON ME.
 Job cpu time:       0 days  0 hours  0 minutes  5.9 seconds.
 Elapsed time:       0 days  0 hours  0 minutes  6.2 seconds.
 File lengths (MBytes):  RWF=      6 Int=      0 D2E=      0 Chk=      2 Scr=      1
 Normal termination of Gaussian 16 at Thu Dec 22 17:06:26 2022.
