 Entering Gaussian System, Link 0=/opt/g16.a03/g16/g16
 Initial command:
 /opt/g16.a03/g16/l1.exe "/scr/ericg/c4h2/Gau-11473.inp" -scrdir="/scr/ericg/c4h2/"
 Entering Link 1 = /opt/g16.a03/g16/l1.exe PID=     11475.
  
 Copyright (c) 1988,1990,1992,1993,1995,1998,2003,2009,2016,
            Gaussian, Inc.  All Rights Reserved.
  
 This is part of the Gaussian(R) 16 program.  It is based on
 the Gaussian(R) 09 system (copyright 2009, Gaussian, Inc.),
 the Gaussian(R) 03 system (copyright 2003, Gaussian, Inc.),
 the Gaussian(R) 98 system (copyright 1998, Gaussian, Inc.),
 the Gaussian(R) 94 system (copyright 1995, Gaussian, Inc.),
 the Gaussian 92(TM) system (copyright 1992, Gaussian, Inc.),
 the Gaussian 90(TM) system (copyright 1990, Gaussian, Inc.),
 the Gaussian 88(TM) system (copyright 1988, Gaussian, Inc.),
 the Gaussian 86(TM) system (copyright 1986, Carnegie Mellon
 University), and the Gaussian 82(TM) system (copyright 1983,
 Carnegie Mellon University). Gaussian is a federally registered
 trademark of Gaussian, Inc.
  
 This software contains proprietary and confidential information,
 including trade secrets, belonging to Gaussian, Inc.
  
 This software is provided under written license and may be
 used, copied, transmitted, or stored only in accord with that
 written license.
  
 The following legend is applicable only to US Government
 contracts under FAR:
  
                    RESTRICTED RIGHTS LEGEND
  
 Use, reproduction and disclosure by the US Government is
 subject to restrictions as set forth in subparagraphs (a)
 and (c) of the Commercial Computer Software - Restricted
 Rights clause in FAR 52.227-19.
  
 Gaussian, Inc.
 340 Quinnipiac St., Bldg. 40, Wallingford CT 06492
  
  
 ---------------------------------------------------------------
 Warning -- This program may not be used in any manner that
 competes with the business of Gaussian, Inc. or will provide
 assistance to any competitor of Gaussian, Inc.  The licensee
 of this program is prohibited from giving any competitor of
 Gaussian, Inc. access to this program.  By using this program,
 the user acknowledges that Gaussian, Inc. is engaged in the
 business of creating and licensing software in the field of
 computational chemistry and represents and warrants to the
 licensee that it is not a competitor of Gaussian, Inc. and that
 it will not use this program in any manner prohibited above.
 ---------------------------------------------------------------
  

 Cite this work as:
 Gaussian 16, Revision A.03,
 M. J. Frisch, G. W. Trucks, H. B. Schlegel, G. E. Scuseria, 
 M. A. Robb, J. R. Cheeseman, G. Scalmani, V. Barone, 
 G. A. Petersson, H. Nakatsuji, X. Li, M. Caricato, A. V. Marenich, 
 J. Bloino, B. G. Janesko, R. Gomperts, B. Mennucci, H. P. Hratchian, 
 J. V. Ortiz, A. F. Izmaylov, J. L. Sonnenberg, D. Williams-Young, 
 F. Ding, F. Lipparini, F. Egidi, J. Goings, B. Peng, A. Petrone, 
 T. Henderson, D. Ranasinghe, V. G. Zakrzewski, J. Gao, N. Rega, 
 G. Zheng, W. Liang, M. Hada, M. Ehara, K. Toyota, R. Fukuda, 
 J. Hasegawa, M. Ishida, T. Nakajima, Y. Honda, O. Kitao, H. Nakai, 
 T. Vreven, K. Throssell, J. A. Montgomery, Jr., J. E. Peralta, 
 F. Ogliaro, M. J. Bearpark, J. J. Heyd, E. N. Brothers, K. N. Kudin, 
 V. N. Staroverov, T. A. Keith, R. Kobayashi, J. Normand, 
 K. Raghavachari, A. P. Rendell, J. C. Burant, S. S. Iyengar, 
 J. Tomasi, M. Cossi, J. M. Millam, M. Klene, C. Adamo, R. Cammi, 
 J. W. Ochterski, R. L. Martin, K. Morokuma, O. Farkas, 
 J. B. Foresman, and D. J. Fox, Gaussian, Inc., Wallingford CT, 2016.
 
 ******************************************
 Gaussian 16:  ES64L-G16RevA.03 25-Dec-2016
                18-May-2020 
 ******************************************
 %nproc=4
 Will use up to    4 processors via shared memory.
 ----------------------------------------------------------------------
 #nonstd 1/38=1,163=2,172=1/1; 2/12=2,17=6,18=5,40=1/2; 3/5=4,6=6,7=111
 1,11=1,25=1,30=1,116=1/1,2,3; 4//1; 5/5=2,38=5/2; 6/7=2,8=2,9=2,10=2,2
 8=1,40=12,113=1,114=1,124=2103/1,12(1); 99/5=1,9=1/99; 5/5=2,7=1,13=1,
 38=1,48=100000/2; 6/7=2,8=2,9=2,10=2,28=1,40=3,113=1,114=1,124=2103/12
 (-1); 99/5=1,9=1/99;
 ----------------------------------------------------------------------
 1/38=1,163=2,172=1/1;
 2/12=2,17=6,18=5,40=1/2;
 3/5=4,6=6,7=1111,11=1,25=1,30=1,116=1/1,2,3;
 4//1;
 5/5=2,38=5/2;
 6/7=2,8=2,9=2,10=2,28=1,40=12,113=1,114=1,124=2103/1,12(1);
 99/5=1,9=1/99;
 5/5=2,7=1,13=1,38=1,48=100000/2;
 6/7=2,8=2,9=2,10=2,28=1,40=3,113=1,114=1,124=2103/12(-1);
 99/5=1,9=1/99;
 --------------------------
 Butadiyne...rhf/6-311++g**
 --------------------------
 Symbolic Z-matrix:
 Charge =  0 Multiplicity = 1
 H                     0.        0.        2.93387 
 C                     0.        0.        1.87844 
 C                     0.        0.        0.69307 
 C                     0.        0.       -0.69307 
 C                     0.        0.       -1.87844 
 H                     0.        0.       -2.93387 
 
                          Input orientation:                          
 ---------------------------------------------------------------------
 Center     Atomic      Atomic             Coordinates (Angstroms)
 Number     Number       Type             X           Y           Z
 ---------------------------------------------------------------------
      1          1           0        0.000000    0.000000    2.933869
      2          6           0        0.000000    0.000000    1.878441
      3          6           0        0.000000    0.000000    0.693074
      4          6           0        0.000000    0.000000   -0.693074
      5          6           0        0.000000    0.000000   -1.878441
      6          1           0        0.000000    0.000000   -2.933869
 ---------------------------------------------------------------------
                    Distance matrix (angstroms):
                    1          2          3          4          5
     1  H    0.000000
     2  C    1.055428   0.000000
     3  C    2.240795   1.185367   0.000000
     4  C    3.626943   2.571515   1.386148   0.000000
     5  C    4.812310   3.756882   2.571515   1.185367   0.000000
     6  H    5.867738   4.812310   3.626943   2.240795   1.055428
                    6
     6  H    0.000000
 Stoichiometry    C4H2
 Framework group  D*H[C*(HCC.CCH)]
 Deg. of freedom     3
 Full point group                 D*H     NOp   8
 Largest Abelian subgroup         D2H     NOp   8
 Largest concise Abelian subgroup C2      NOp   2
                         Standard orientation:                         
 ---------------------------------------------------------------------
 Center     Atomic      Atomic             Coordinates (Angstroms)
 Number     Number       Type             X           Y           Z
 ---------------------------------------------------------------------
      1          1           0        0.000000    0.000000    2.933869
      2          6           0        0.000000    0.000000    1.878441
      3          6           0        0.000000    0.000000    0.693074
      4          6           0        0.000000    0.000000   -0.693074
      5          6           0        0.000000    0.000000   -1.878441
      6          1           0        0.000000    0.000000   -2.933869
 ---------------------------------------------------------------------
 Rotational constants (GHZ):           0.0000000           4.4501967           4.4501967
 Standard basis: 6-311++G(d,p) (5D, 7F)
 There are    29 symmetry adapted cartesian basis functions of AG  symmetry.
 There are     2 symmetry adapted cartesian basis functions of B1G symmetry.
 There are    11 symmetry adapted cartesian basis functions of B2G symmetry.
 There are    11 symmetry adapted cartesian basis functions of B3G symmetry.
 There are     2 symmetry adapted cartesian basis functions of AU  symmetry.
 There are    29 symmetry adapted cartesian basis functions of B1U symmetry.
 There are    11 symmetry adapted cartesian basis functions of B2U symmetry.
 There are    11 symmetry adapted cartesian basis functions of B3U symmetry.
 There are    27 symmetry adapted basis functions of AG  symmetry.
 There are     2 symmetry adapted basis functions of B1G symmetry.
 There are    11 symmetry adapted basis functions of B2G symmetry.
 There are    11 symmetry adapted basis functions of B3G symmetry.
 There are     2 symmetry adapted basis functions of AU  symmetry.
 There are    27 symmetry adapted basis functions of B1U symmetry.
 There are    11 symmetry adapted basis functions of B2U symmetry.
 There are    11 symmetry adapted basis functions of B3U symmetry.
   102 basis functions,   162 primitive gaussians,   106 cartesian basis functions
    13 alpha electrons       13 beta electrons
       nuclear repulsion energy        77.7843112279 Hartrees.
 NAtoms=    6 NActive=    6 NUniq=    3 SFac= 4.00D+00 NAtFMM=   60 NAOKFM=F Big=F
 Integral buffers will be    131072 words long.
 Raffenetti 1 integral format.
 Two-electron integral symmetry is turned on.
 One-electron integrals computed using PRISM.
 NBasis=   102 RedAO= T EigKep=  5.78D-06  NBF=    27     2    11    11     2    27    11    11
 NBsUse=   100 1.00D-06 EigRej=  8.56D-07 NBFU=    26     2    11    11     2    26    11    11
 ExpMin= 3.60D-02 ExpMax= 4.56D+03 ExpMxC= 6.82D+02 IAcc=3 IRadAn=         5 AccDes= 0.00D+00
 Harris functional with IExCor=  205 and IRadAn=       5 diagonalized for initial guess.
 HarFok:  IExCor=  205 AccDes= 0.00D+00 IRadAn=         5 IDoV= 1 UseB2=F ITyADJ=14
 ICtDFT=  3500011 ScaDFX=  1.000000  1.000000  1.000000  1.000000
 FoFCou: FMM=F IPFlag=           0 FMFlag=      100000 FMFlg1=           0
         NFxFlg=           0 DoJE=T BraDBF=F KetDBF=T FulRan=T
         wScrn=  0.000000 ICntrl=       500 IOpCl=  0 I1Cent=   200000004 NGrid=           0
         NMat0=    1 NMatS0=      1 NMatT0=    0 NMatD0=    1 NMtDS0=    0 NMtDT0=    0
 Petite list used in FoFCou.
 Initial guess orbital symmetries:
       Occupied  (SGU) (SGG) (SGG) (SGU) (SGG) (SGU) (SGG) (SGU)
                 (SGG) (PIU) (PIU) (PIG) (PIG)
       Virtual   (PIU) (PIU) (SGG) (PIG) (PIG) (SGU) (SGG) (PIU)
                 (PIU) (SGU) (SGU) (PIG) (PIG) (SGG) (PIU) (PIU)
                 (SGU) (SGG) (PIG) (PIG) (SGU) (SGG) (SGU) (SGG)
                 (PIU) (PIU) (SGU) (PIG) (PIG) (SGG) (PIU) (PIU)
                 (PIG) (PIG) (SGU) (SGG) (SGU) (SGG) (SGG) (PIU)
                 (PIU) (SGU) (DLTG) (DLTG) (SGU) (DLTU) (DLTU)
                 (SGG) (PIG) (PIG) (DLTG) (DLTG) (PIU) (PIU) (SGU)
                 (DLTU) (DLTU) (PIG) (PIG) (SGG) (SGU) (PIU) (PIU)
                 (SGG) (PIG) (PIG) (PIU) (PIU) (SGG) (SGU) (SGU)
                 (PIG) (PIG) (PIU) (PIU) (SGG) (PIG) (PIG) (SGU)
                 (SGG) (SGG) (SGU) (SGU) (SGG) (SGU) (SGG) (SGU)
 The electronic state of the initial guess is 1-SGG.
 Keep R1 ints in memory in symmetry-blocked form, NReq=15759005.
 Requested convergence on RMS density matrix=1.00D-08 within 128 cycles.
 Requested convergence on MAX density matrix=1.00D-06.
 Requested convergence on             energy=1.00D-06.
 No special actions if energy rises.
 SCF Done:  E(RHF) =  -152.537559838     A.U. after   10 cycles
            NFock= 10  Conv=0.92D-08     -V/T= 2.0000

 **********************************************************************

            Population analysis using the SCF density.

 **********************************************************************

 Orbital symmetries:
       Occupied  (SGG) (SGU) (SGG) (SGU) (SGG) (SGU) (SGG) (SGU)
                 (SGG) (PIU) (PIU) (PIG) (PIG)
       Virtual   (SGG) (SGU) (PIU) (PIU) (SGG) (PIG) (PIG) (PIU)
                 (PIU) (SGU) (SGG) (SGU) (PIU) (PIU) (PIG) (PIG)
                 (SGG) (SGU) (SGU) (PIG) (PIG) (SGG) (SGU) (SGG)
                 (SGU) (PIU) (PIU) (SGG) (PIG) (PIG) (PIU) (PIU)
                 (SGU) (SGG) (PIG) (PIG) (SGG) (SGU) (SGU) (SGG)
                 (PIU) (PIU) (DLTG) (DLTG) (SGG) (SGU) (DLTU) (DLTU)
                 (PIG) (PIG) (SGU) (DLTG) (DLTG) (PIU) (PIU) (DLTU)
                 (DLTU) (PIG) (PIG) (SGG) (SGU) (PIU) (PIU) (SGG)
                 (SGU) (SGG) (PIG) (PIG) (SGU) (PIU) (PIU) (PIG)
                 (PIG) (PIU) (PIU) (SGG) (PIG) (PIG) (SGU) (SGG)
                 (SGG) (SGU) (SGU) (SGG) (SGU) (SGG) (SGU)
 The electronic state is 1-SGG.
 Alpha  occ. eigenvalues --  -11.26393 -11.26286 -11.25227 -11.25223  -1.09674
 Alpha  occ. eigenvalues --   -1.03222  -0.84707  -0.73648  -0.70917  -0.49559
 Alpha  occ. eigenvalues --   -0.49559  -0.37859  -0.37859
 Alpha virt. eigenvalues --    0.03987   0.04385   0.08902   0.08902   0.11857
 Alpha virt. eigenvalues --    0.12014   0.12014   0.13695   0.13695   0.14660
 Alpha virt. eigenvalues --    0.17956   0.18197   0.21201   0.21201   0.25011
 Alpha virt. eigenvalues --    0.25011   0.25389   0.31088   0.34586   0.35711
 Alpha virt. eigenvalues --    0.35711   0.36977   0.48080   0.56544   0.63520
 Alpha virt. eigenvalues --    0.68132   0.68132   0.72633   0.75342   0.75342
 Alpha virt. eigenvalues --    0.83145   0.83145   0.83811   0.85594   0.90684
 Alpha virt. eigenvalues --    0.90684   1.02020   1.02111   1.24584   1.28712
 Alpha virt. eigenvalues --    1.29451   1.29451   1.32003   1.32003   1.41614
 Alpha virt. eigenvalues --    1.42858   1.43952   1.43952   1.58593   1.58593
 Alpha virt. eigenvalues --    1.74862   1.75187   1.75187   1.79899   1.79899
 Alpha virt. eigenvalues --    1.97358   1.97358   2.15717   2.15717   2.17583
 Alpha virt. eigenvalues --    2.35685   2.58211   2.58211   2.81179   2.94934
 Alpha virt. eigenvalues --    2.96258   3.03473   3.03473   3.08071   3.09602
 Alpha virt. eigenvalues --    3.09602   3.33552   3.33552   3.36802   3.36802
 Alpha virt. eigenvalues --    3.37934   3.45338   3.45338   3.68817   3.82816
 Alpha virt. eigenvalues --    4.05049   4.16524   4.58268  24.53549  24.97315
 Alpha virt. eigenvalues --   26.10401  26.70113
          Condensed to atoms (all electrons):
               1          2          3          4          5          6
     1  H    0.388463   0.442911  -0.027799   0.036052  -0.031978  -0.000166
     2  C    0.442911   7.476748  -1.086689   1.133654  -1.388707  -0.031978
     3  C   -0.027799  -1.086689   6.225877  -0.634516   1.133654   0.036052
     4  C    0.036052   1.133654  -0.634516   6.225877  -1.086689  -0.027799
     5  C   -0.031978  -1.388707   1.133654  -1.086689   7.476748   0.442911
     6  H   -0.000166  -0.031978   0.036052  -0.027799   0.442911   0.388463
 Mulliken charges:
               1
     1  H    0.192518
     2  C   -0.545938
     3  C    0.353421
     4  C    0.353421
     5  C   -0.545938
     6  H    0.192518
 Sum of Mulliken charges =  -0.00000
 Mulliken charges with hydrogens summed into heavy atoms:
               1
     2  C   -0.353421
     3  C    0.353421
     4  C    0.353421
     5  C   -0.353421
 Electronic spatial extent (au):  <R**2>=            279.2006
 Charge=             -0.0000 electrons
 Dipole moment (field-independent basis, Debye):
    X=              0.0000    Y=              0.0000    Z=             -0.0000  Tot=              0.0000
 Quadrupole moment (field-independent basis, Debye-Ang):
   XX=            -25.2093   YY=            -25.2093   ZZ=            -11.3614
   XY=             -0.0000   XZ=             -0.0000   YZ=              0.0000
 Traceless Quadrupole moment (field-independent basis, Debye-Ang):
   XX=             -4.6160   YY=             -4.6160   ZZ=              9.2319
   XY=             -0.0000   XZ=             -0.0000   YZ=              0.0000
 Octapole moment (field-independent basis, Debye-Ang**2):
  XXX=             -0.0000  YYY=             -0.0000  ZZZ=              0.0000  XYY=             -0.0000
  XXY=              0.0000  XXZ=              0.0000  XZZ=              0.0000  YZZ=             -0.0000
  YYZ=              0.0000  XYZ=              0.0000
 Hexadecapole moment (field-independent basis, Debye-Ang**3):
 XXXX=            -30.2227 YYYY=            -30.2227 ZZZZ=           -196.9370 XXXY=             -0.0000
 XXXZ=              0.0000 YYYX=             -0.0000 YYYZ=              0.0000 ZZZX=              0.0000
 ZZZY=              0.0000 XXYY=            -10.0742 XXZZ=            -69.1497 YYZZ=            -69.1497
 XXYZ=              0.0000 YYXZ=              0.0000 ZZXY=             -0.0000
 N-N= 7.778431122794D+01 E-N=-5.107743650587D+02  KE= 1.525332744796D+02
 Symmetry AG   KE= 7.353667073235D+01
 Symmetry B1G  KE= 6.861432256923D-34
 Symmetry B2G  KE= 2.268024552427D+00
 Symmetry B3G  KE= 2.268024552427D+00
 Symmetry AU   KE= 7.998278377739D-34
 Symmetry B1U  KE= 7.034825586158D+01
 Symmetry B2U  KE= 2.056149390399D+00
 Symmetry B3U  KE= 2.056149390399D+00
 Running external command "gaunbo6 R"
         input file       "/scr/ericg/c4h2/Gau-11475.EIn"
         output file      "/scr/ericg/c4h2/Gau-11475.EOu"
         message file     "/scr/ericg/c4h2/Gau-11475.EMs"
         fchk file        "/scr/ericg/c4h2/Gau-11475.EFC"
         mat. el file     "/scr/ericg/c4h2/Gau-11475.EUF"

 Writing WrtUnf unformatted file "/scr/ericg/c4h2/Gau-11475.EUF"
 Gaussian matrix elements                                         Version   2 NLab=11 Len12L=8 Len4L=8
 Write SHELL TO ATOM MAP                   from file     0 offset           0 length                  34 to matrix element file.
 Write SHELL TYPES                         from file     0 offset           0 length                  34 to matrix element file.
 Write NUMBER OF PRIMITIVES PER SHELL      from file     0 offset           0 length                  34 to matrix element file.
 Write PRIMITIVE EXPONENTS                 from file     0 offset           0 length                  66 to matrix element file.
 Write CONTRACTION COEFFICIENTS            from file     0 offset           0 length                  66 to matrix element file.
 Write P(S=P) CONTRACTION COEFFICIENTS     from file     0 offset           0 length                  66 to matrix element file.
 Write COORDINATES OF EACH SHELL           from file     0 offset           0 length                 102 to matrix element file.
 Write BONDS PER ATOM                      from file     0 offset           0 length                   6 to matrix element file.
 Write BONDED ATOMS                        from file     0 offset           0 length                  10 to matrix element file.
 Write BOND TYPES                          from file     0 offset           0 length                  10 to matrix element file.
 Write GAUSSIAN SCALARS                    from file   501 offset           0 to matrix element file.
 Write INTEGER ISO                         from file     0 offset           0 length                   6 to matrix element file.
 Write INTEGER SPIN                        from file     0 offset           0 length                   6 to matrix element file.
 Write REAL ZEFFECTIVE                     from file     0 offset           0 length                   6 to matrix element file.
 Write REAL GFACTOR                        from file     0 offset           0 length                   6 to matrix element file.
 Write REAL ZNUCLEAR                       from file     0 offset           0 length                   6 to matrix element file.
 Write NUCLEAR GRADIENT                    from file 10584 offset           0 length                  18 to matrix element file.
 Array NUCLEAR FORCE CONSTANTS              on  file 10585 does not exist.
 Write ELECTRIC DIPOLE MOMENT              from file     0 offset           0 length                   3 to matrix element file.
 Write OVERLAP                             from file   514 offset           0 length                5253 to matrix element file.
 Write CORE HAMILTONIAN ALPHA              from file   515 offset           0 length                5253 to matrix element file.
 Write CORE HAMILTONIAN BETA               from file   515 offset        5253 length                5253 to matrix element file.
 Write KINETIC ENERGY                      from file   516 offset           0 length                5253 to matrix element file.
 Write ORTHOGONAL BASIS                    from file   685 offset           0 length               10200 to matrix element file.
 Write DIPOLE INTEGRALS                    from file   518 offset           0 length               15759 to matrix element file.
 Array DIP VEL INTEGRALS                    on  file   572 does not exist.
 Array R X DEL INTEGRALS                    on  file   572 does not exist.
 Write ALPHA ORBITAL ENERGIES              from file     0 offset           0 length                 100 to matrix element file.
 Write ALPHA MO COEFFICIENTS               from file 10524 offset           0 length               10200 to matrix element file.
 Write ALPHA DENSITY MATRIX                from file     0 offset           0 length                5253 to matrix element file.
 Write ALPHA SCF DENSITY MATRIX            from file 10528 offset           0 length                5253 to matrix element file.
 Write ALPHA FOCK MATRIX                   from file 10536 offset           0 length                5253 to matrix element file.
 No 2e integrals to process.
 Perform NBO analysis...executing G16NBO...

 *********************************** NBO 7.0 ***********************************
             N A T U R A L   A T O M I C   O R B I T A L   A N D
          N A T U R A L   B O N D   O R B I T A L   A N A L Y S I S
 ************************ development version (D000000) ************************
  (c) Copyright 1996-2020 Board of Regents of the University of Wisconsin System
      on behalf of the Theoretical Chemistry Institute.  All rights reserved.

          Cite this program [NBO 7.0.9 (21-May-2020)] as:

          NBO 7.0.  E. D. Glendening, J. K. Badenhoop, A. E. Reed,
          J. E. Carpenter, J. A. Bohmann, C. M. Morales, P. Karafiloglou,
          C. R. Landis, and F. Weinhold, Theoretical Chemistry Institute,
          University of Wisconsin, Madison, WI (2018)

 Filename set to /scr/ericg/c4h2/Gau-11475

 Job title: Butadiyne...rhf/6-311++g**

 Interatomic linear dependence detected; s-type subshell on  C  2 discarded
 Interatomic linear dependence detected; s-type subshell on  C  5 discarded


 NATURAL POPULATIONS:  Natural atomic orbital occupancies

  NAO Atom No lang   Type(AO)    Occupancy      Energy
 -------------------------------------------------------
   1    H  1  s      Val( 1s)     0.77113       0.14673
   2    H  1  s      Ryd( 4s)     0.00070       2.22617
   3    H  1  s      Ryd( 2s)     0.00009       0.95667
   4    H  1  s      Ryd( 3s)     0.00000       1.22442
   5    H  1  px     Ryd( 2p)     0.00010       1.90172
   6    H  1  py     Ryd( 2p)     0.00010       1.90172
   7    H  1  pz     Ryd( 2p)     0.00093       2.91138

   8    C  2  s      Cor( 1s)     2.00000     -11.25253
   9    C  2  s      Val( 2s)     0.96877      -0.04649
  10    C  2  s      Ryd( 3s)     0.00034       1.30115
  11    C  2  s      Ryd( 4s)     0.00001      16.79864
  12    C  2  px     Val( 2p)     0.96552      -0.05742
  13    C  2  px     Ryd( 3p)     0.00057       0.46262
  14    C  2  px     Ryd( 4p)     0.00004       0.91761
  15    C  2  px     Ryd( 5p)     0.00001       2.85786
  16    C  2  py     Val( 2p)     0.96552      -0.05742
  17    C  2  py     Ryd( 3p)     0.00057       0.46262
  18    C  2  py     Ryd( 4p)     0.00004       0.91761
  19    C  2  py     Ryd( 5p)     0.00001       2.85786
  20    C  2  pz     Val( 2p)     1.21665       0.05868
  21    C  2  pz     Ryd( 3p)     0.00029       0.91742
  22    C  2  pz     Ryd( 4p)     0.00031       2.19558
  23    C  2  pz     Ryd( 5p)     0.00020       2.93579
  24    C  2  dxy    Ryd( 3d)     0.00000       1.61949
  25    C  2  dxz    Ryd( 3d)     0.00180       2.14588
  26    C  2  dyz    Ryd( 3d)     0.00180       2.14588
  27    C  2  dx2y2  Ryd( 3d)     0.00000       1.61949
  28    C  2  dz2    Ryd( 3d)     0.00257       3.59634

  29    C  3  s      Cor( 1s)     2.00000     -11.26286
  30    C  3  s      Val( 2s)     0.86172       0.06684
  31    C  3  s      Ryd( 3s)     0.00250       1.09681
  32    C  3  s      Ryd( 4s)     0.00056       5.73374
  33    C  3  s      Ryd( 5s)     0.00000      19.45009
  34    C  3  px     Val( 2p)     1.02898      -0.05362
  35    C  3  px     Ryd( 3p)     0.00168       0.62307
  36    C  3  px     Ryd( 4p)     0.00001       1.92804
  37    C  3  px     Ryd( 5p)     0.00001       1.57055
  38    C  3  py     Val( 2p)     1.02898      -0.05362
  39    C  3  py     Ryd( 3p)     0.00168       0.62307
  40    C  3  py     Ryd( 4p)     0.00001       1.92804
  41    C  3  py     Ryd( 5p)     0.00001       1.57055
  42    C  3  pz     Val( 2p)     1.16939       0.06983
  43    C  3  pz     Ryd( 3p)     0.00106       1.11486
  44    C  3  pz     Ryd( 4p)     0.00124       3.88874
  45    C  3  pz     Ryd( 5p)     0.00004       6.01109
  46    C  3  dxy    Ryd( 3d)     0.00000       1.62301
  47    C  3  dxz    Ryd( 3d)     0.00130       2.28899
  48    C  3  dyz    Ryd( 3d)     0.00130       2.28899
  49    C  3  dx2y2  Ryd( 3d)     0.00000       1.62301
  50    C  3  dz2    Ryd( 3d)     0.00149       3.93301

  51    C  4  s      Cor( 1s)     2.00000     -11.26286
  52    C  4  s      Val( 2s)     0.86172       0.06684
  53    C  4  s      Ryd( 3s)     0.00250       1.09681
  54    C  4  s      Ryd( 4s)     0.00056       5.73374
  55    C  4  s      Ryd( 5s)     0.00000      19.45009
  56    C  4  px     Val( 2p)     1.02898      -0.05362
  57    C  4  px     Ryd( 3p)     0.00168       0.62307
  58    C  4  px     Ryd( 4p)     0.00001       1.92804
  59    C  4  px     Ryd( 5p)     0.00001       1.57055
  60    C  4  py     Val( 2p)     1.02898      -0.05362
  61    C  4  py     Ryd( 3p)     0.00168       0.62307
  62    C  4  py     Ryd( 4p)     0.00001       1.92804
  63    C  4  py     Ryd( 5p)     0.00001       1.57055
  64    C  4  pz     Val( 2p)     1.16939       0.06983
  65    C  4  pz     Ryd( 3p)     0.00106       1.11486
  66    C  4  pz     Ryd( 4p)     0.00124       3.88874
  67    C  4  pz     Ryd( 5p)     0.00004       6.01109
  68    C  4  dxy    Ryd( 3d)     0.00000       1.62301
  69    C  4  dxz    Ryd( 3d)     0.00130       2.28899
  70    C  4  dyz    Ryd( 3d)     0.00130       2.28899
  71    C  4  dx2y2  Ryd( 3d)     0.00000       1.62301
  72    C  4  dz2    Ryd( 3d)     0.00149       3.93301

  73    C  5  s      Cor( 1s)     2.00000     -11.25253
  74    C  5  s      Val( 2s)     0.96877      -0.04649
  75    C  5  s      Ryd( 3s)     0.00034       1.30115
  76    C  5  s      Ryd( 4s)     0.00001      16.79864
  77    C  5  px     Val( 2p)     0.96552      -0.05742
  78    C  5  px     Ryd( 3p)     0.00057       0.46262
  79    C  5  px     Ryd( 4p)     0.00004       0.91761
  80    C  5  px     Ryd( 5p)     0.00001       2.85786
  81    C  5  py     Val( 2p)     0.96552      -0.05742
  82    C  5  py     Ryd( 3p)     0.00057       0.46262
  83    C  5  py     Ryd( 4p)     0.00004       0.91761
  84    C  5  py     Ryd( 5p)     0.00001       2.85786
  85    C  5  pz     Val( 2p)     1.21665       0.05868
  86    C  5  pz     Ryd( 3p)     0.00029       0.91742
  87    C  5  pz     Ryd( 4p)     0.00031       2.19558
  88    C  5  pz     Ryd( 5p)     0.00020       2.93579
  89    C  5  dxy    Ryd( 3d)     0.00000       1.61949
  90    C  5  dxz    Ryd( 3d)     0.00180       2.14588
  91    C  5  dyz    Ryd( 3d)     0.00180       2.14588
  92    C  5  dx2y2  Ryd( 3d)     0.00000       1.61949
  93    C  5  dz2    Ryd( 3d)     0.00257       3.59634

  94    H  6  s      Val( 1s)     0.77113       0.14673
  95    H  6  s      Ryd( 4s)     0.00070       2.22617
  96    H  6  s      Ryd( 2s)     0.00009       0.95667
  97    H  6  s      Ryd( 3s)     0.00000       1.22442
  98    H  6  px     Ryd( 2p)     0.00010       1.90172
  99    H  6  py     Ryd( 2p)     0.00010       1.90172
 100    H  6  pz     Ryd( 2p)     0.00093       2.91138


 Summary of Natural Population Analysis:

                                     Natural Population
             Natural    ---------------------------------------------
  Atom No    Charge        Core      Valence    Rydberg      Total
 --------------------------------------------------------------------
    H  1    0.22694      0.00000     0.77113    0.00192     0.77306
    C  2   -0.12500      2.00000     4.11646    0.00854     6.12500
    C  3   -0.10194      2.00000     4.08907    0.01287     6.10194
    C  4   -0.10194      2.00000     4.08907    0.01287     6.10194
    C  5   -0.12500      2.00000     4.11646    0.00854     6.12500
    H  6    0.22694      0.00000     0.77113    0.00192     0.77306
 ====================================================================
 * Total *  0.00000      7.99999    17.95334    0.04667    26.00000

                                 Natural Population
 ---------------------------------------------------------
   Core                       7.99999 ( 99.9999% of    8)
   Valence                   17.95334 ( 99.7408% of   18)
   Natural Minimal Basis     25.95333 ( 99.8205% of   26)
   Natural Rydberg Basis      0.04667 (  0.1795% of   26)
 ---------------------------------------------------------

    Atom No         Natural Electron Configuration
 ----------------------------------------------------------------------------
      H  1            1s( 0.77)
      C  2      [core]2s( 0.97)2p( 3.15)3d( 0.01)
      C  3      [core]2s( 0.86)2p( 3.23)
      C  4      [core]2s( 0.86)2p( 3.23)
      C  5      [core]2s( 0.97)2p( 3.15)3d( 0.01)
      H  6            1s( 0.77)


 NATURAL BOND ORBITAL ANALYSIS:

                            Occupancies       Lewis Structure    Low   High
         Max    Occ     -------------------  -----------------   occ   occ
  Cycle  Ctr   Thresh    Lewis   non-Lewis     CR  BD  nC  LP    (L)   (NL)
 ============================================================================
    1     2     1.90    25.74614   0.25386      4   9   0   0     0      0
 ----------------------------------------------------------------------------

 Structure accepted: No low occupancy Lewis orbitals

 -------------------------------------------------------
   Core                      7.99999 (100.000% of   8)
   Valence Lewis            17.74614 ( 98.590% of  18)
  ==================      =============================
   Total Lewis              25.74614 ( 99.024% of  26)
  -----------------------------------------------------
   Valence non-Lewis         0.23342 (  0.898% of  26)
   Rydberg non-Lewis         0.02044 (  0.079% of  26)
  ==================      =============================
   Total non-Lewis           0.25386 (  0.976% of  26)
 -------------------------------------------------------


     (Occupancy)   Bond orbital / Coefficients / Hybrids
 ------------------ Lewis ------------------------------------------------------
   1. (2.00000) CR ( 1) C  2            s(100.00%)
                                         1.0000  0.0000  0.0000  0.0000  0.0000
                                         0.0000  0.0000  0.0000  0.0000  0.0000
                                         0.0000  0.0000  0.0000  0.0000  0.0000
                                         0.0000  0.0000  0.0000  0.0000  0.0000
                                         0.0000
   2. (2.00000) CR ( 1) C  3            s(100.00%)
                                         1.0000  0.0000  0.0000  0.0000  0.0000
                                         0.0000  0.0000  0.0000  0.0000  0.0000
                                         0.0000  0.0000  0.0000  0.0000  0.0000
                                         0.0000  0.0000  0.0000  0.0000  0.0000
                                         0.0000  0.0000
   3. (2.00000) CR ( 1) C  4            s(100.00%)
                                         1.0000  0.0000  0.0000  0.0000  0.0000
                                         0.0000  0.0000  0.0000  0.0000  0.0000
                                         0.0000  0.0000  0.0000  0.0000  0.0000
                                         0.0000  0.0000  0.0000  0.0000  0.0000
                                         0.0000  0.0000
   4. (2.00000) CR ( 1) C  5            s(100.00%)
                                         1.0000  0.0000  0.0000  0.0000  0.0000
                                         0.0000  0.0000  0.0000  0.0000  0.0000
                                         0.0000  0.0000  0.0000  0.0000  0.0000
                                         0.0000  0.0000  0.0000  0.0000  0.0000
                                         0.0000
   5. (1.98863) BD ( 1) H  1- C  2
               ( 38.61%)   0.6213* H  1 s( 99.91%)p 0.00(  0.09%)
                                         0.9995 -0.0038  0.0003  0.0000  0.0000
                                         0.0000 -0.0300
               ( 61.39%)   0.7835* C  2 s( 46.26%)p 1.16( 53.64%)d 0.00(  0.10%)
                                         0.0000  0.6801  0.0039  0.0007  0.0000
                                         0.0000  0.0000  0.0000  0.0000  0.0000
                                         0.0000  0.0000  0.7322  0.0134  0.0008
                                        -0.0031  0.0000  0.0000  0.0000  0.0000
                                         0.0324
   6. (1.97978) BD ( 1) C  2- C  3
               ( 48.27%)   0.6948* C  2 s( 53.45%)p 0.87( 46.39%)d 0.00(  0.16%)
                                         0.0000  0.7310 -0.0070 -0.0006  0.0000
                                         0.0000  0.0000  0.0000  0.0000  0.0000
                                         0.0000  0.0000 -0.6809  0.0059 -0.0135
                                        -0.0083  0.0000  0.0000  0.0000  0.0000
                                         0.0405
               ( 51.73%)   0.7192* C  3 s( 53.83%)p 0.86( 46.09%)d 0.00(  0.09%)
                                         0.0000  0.7333 -0.0198  0.0102 -0.0003
                                         0.0000  0.0000  0.0000  0.0000  0.0000
                                         0.0000  0.0000  0.0000  0.6780  0.0319
                                        -0.0130 -0.0036  0.0000  0.0000  0.0000
                                         0.0000  0.0292
   7. (1.95843) BD ( 2) C  2- C  3
               ( 48.37%)   0.6955* C  2 s(  0.00%)p 1.00( 99.81%)d 0.00(  0.19%)
                                         0.0000  0.0000  0.0000  0.0000 -0.0295
                                         0.0000  0.0002  0.0000  0.9986 -0.0014
                                        -0.0063 -0.0005  0.0000  0.0000  0.0000
                                         0.0000  0.0000  0.0013 -0.0434  0.0000
                                         0.0000
               ( 51.63%)   0.7185* C  3 s(  0.00%)p 1.00( 99.90%)d 0.00(  0.10%)
                                         0.0000  0.0000  0.0000  0.0000  0.0000
                                        -0.0295  0.0005  0.0000  0.0000  0.9989
                                        -0.0171 -0.0012  0.0009  0.0000  0.0000
                                         0.0000  0.0000  0.0000 -0.0009  0.0316
                                         0.0000  0.0000
   8. (1.95843) BD ( 3) C  2- C  3
               ( 48.37%)   0.6955* C  2 s(  0.00%)p 1.00( 99.81%)d 0.00(  0.19%)
                                         0.0000  0.0000  0.0000  0.0000  0.9986
                                        -0.0014 -0.0063 -0.0005  0.0295  0.0000
                                        -0.0002  0.0000  0.0000  0.0000  0.0000
                                         0.0000  0.0000 -0.0434 -0.0013  0.0000
                                         0.0000
               ( 51.63%)   0.7185* C  3 s(  0.00%)p 1.00( 99.90%)d 0.00(  0.10%)
                                         0.0000  0.0000  0.0000  0.0000  0.0000
                                         0.9989 -0.0171 -0.0012  0.0009  0.0295
                                        -0.0005  0.0000  0.0000  0.0000  0.0000
                                         0.0000  0.0000  0.0000  0.0316  0.0009
                                         0.0000  0.0000
   9. (1.97558) BD ( 1) C  3- C  4
               ( 50.00%)   0.7071* C  3 s( 46.01%)p 1.17( 53.91%)d 0.00(  0.08%)
                                         0.0000  0.6780  0.0150 -0.0143  0.0004
                                         0.0000  0.0000  0.0000  0.0000  0.0000
                                         0.0000  0.0000  0.0000 -0.7342  0.0023
                                        -0.0087 -0.0011  0.0000  0.0000  0.0000
                                         0.0000  0.0285
               ( 50.00%)   0.7071* C  4 s( 46.01%)p 1.17( 53.91%)d 0.00(  0.08%)
                                         0.0000  0.6780  0.0150 -0.0143  0.0004
                                         0.0000  0.0000  0.0000  0.0000  0.0000
                                         0.0000  0.0000  0.0000  0.7342 -0.0023
                                         0.0087  0.0011  0.0000  0.0000  0.0000
                                         0.0000  0.0285
  10. (1.97978) BD ( 1) C  4- C  5
               ( 51.73%)   0.7192* C  4 s( 53.83%)p 0.86( 46.09%)d 0.00(  0.09%)
                                         0.0000  0.7333 -0.0198  0.0102 -0.0003
                                         0.0000  0.0000  0.0000  0.0000  0.0000
                                         0.0000  0.0000  0.0000 -0.6780 -0.0319
                                         0.0130  0.0036  0.0000  0.0000  0.0000
                                         0.0000  0.0292
               ( 48.27%)   0.6948* C  5 s( 53.45%)p 0.87( 46.39%)d 0.00(  0.16%)
                                         0.0000  0.7310 -0.0070 -0.0006  0.0000
                                         0.0000  0.0000  0.0000  0.0000  0.0000
                                         0.0000  0.0000  0.6809 -0.0059  0.0135
                                         0.0083  0.0000  0.0000  0.0000  0.0000
                                         0.0405
  11. (1.95843) BD ( 2) C  4- C  5
               ( 51.63%)   0.7185* C  4 s(  0.00%)p 1.00( 99.90%)d 0.00(  0.10%)
                                         0.0000  0.0000  0.0000  0.0000  0.0000
                                         0.9962 -0.0171 -0.0012  0.0009  0.0794
                                        -0.0014 -0.0001  0.0001  0.0000  0.0000
                                         0.0000  0.0000  0.0000 -0.0315 -0.0025
                                         0.0000  0.0000
               ( 48.37%)   0.6955* C  5 s(  0.00%)p 1.00( 99.81%)d 0.00(  0.19%)
                                         0.0000  0.0000  0.0000  0.0000  0.9959
                                        -0.0014 -0.0062 -0.0005  0.0793 -0.0001
                                        -0.0005  0.0000  0.0000  0.0000  0.0000
                                         0.0000  0.0000  0.0433  0.0034  0.0000
                                         0.0000
  12. (1.95843) BD ( 3) C  4- C  5
               ( 51.63%)   0.7185* C  4 s(  0.00%)p 1.00( 99.90%)d 0.00(  0.10%)
                                         0.0000  0.0000  0.0000  0.0000  0.0000
                                        -0.0794  0.0014  0.0001 -0.0001  0.9962
                                        -0.0171 -0.0012  0.0009  0.0000  0.0000
                                         0.0000  0.0000  0.0000  0.0025 -0.0315
                                         0.0000  0.0000
               ( 48.37%)   0.6955* C  5 s(  0.00%)p 1.00( 99.81%)d 0.00(  0.19%)
                                         0.0000  0.0000  0.0000  0.0000 -0.0793
                                         0.0001  0.0005  0.0000  0.9959 -0.0014
                                        -0.0062 -0.0005  0.0000  0.0000  0.0000
                                         0.0000  0.0000 -0.0034  0.0433  0.0000
                                         0.0000
  13. (1.98863) BD ( 1) C  5- H  6
               ( 61.39%)   0.7835* C  5 s( 46.26%)p 1.16( 53.64%)d 0.00(  0.10%)
                                         0.0000  0.6801  0.0039  0.0007  0.0000
                                         0.0000  0.0000  0.0000  0.0000  0.0000
                                         0.0000  0.0000 -0.7322 -0.0134 -0.0008
                                         0.0031  0.0000  0.0000  0.0000  0.0000
                                         0.0324
               ( 38.61%)   0.6213* H  6 s( 99.91%)p 0.00(  0.09%)
                                         0.9995 -0.0038  0.0003  0.0000  0.0000
                                         0.0000  0.0300
 ---------------- non-Lewis ----------------------------------------------------
  14. (0.00676) BD*( 1) H  1- C  2
               ( 61.39%)   0.7835* H  1 s( 99.91%)p 0.00(  0.09%)
                                         0.9995 -0.0038  0.0003  0.0000  0.0000
                                         0.0000 -0.0300
               ( 38.61%)  -0.6213* C  2 s( 46.26%)p 1.16( 53.64%)d 0.00(  0.10%)
                                         0.0000  0.6801  0.0039  0.0007  0.0000
                                         0.0000  0.0000  0.0000  0.0000  0.0000
                                         0.0000  0.0000  0.7322  0.0134  0.0008
                                        -0.0031  0.0000  0.0000  0.0000  0.0000
                                         0.0324
  15. (0.01800) BD*( 1) C  2- C  3
               ( 51.73%)   0.7192* C  2 s( 53.45%)p 0.87( 46.39%)d 0.00(  0.16%)
                                         0.0000  0.7310 -0.0070 -0.0006  0.0000
                                         0.0000  0.0000  0.0000  0.0000  0.0000
                                         0.0000  0.0000 -0.6809  0.0059 -0.0135
                                        -0.0083  0.0000  0.0000  0.0000  0.0000
                                         0.0405
               ( 48.27%)  -0.6948* C  3 s( 53.83%)p 0.86( 46.09%)d 0.00(  0.09%)
                                         0.0000  0.7333 -0.0198  0.0102 -0.0003
                                         0.0000  0.0000  0.0000  0.0000  0.0000
                                         0.0000  0.0000  0.0000  0.6780  0.0319
                                        -0.0130 -0.0036  0.0000  0.0000  0.0000
                                         0.0000  0.0292
  16. (0.03886) BD*( 2) C  2- C  3
               ( 51.63%)   0.7185* C  2 s(  0.00%)p 1.00( 99.81%)d 0.00(  0.19%)
                                         0.0000  0.0000  0.0000  0.0000 -0.0295
                                         0.0000  0.0002  0.0000  0.9986 -0.0014
                                        -0.0063 -0.0005  0.0000  0.0000  0.0000
                                         0.0000  0.0000  0.0013 -0.0434  0.0000
                                         0.0000
               ( 48.37%)  -0.6955* C  3 s(  0.00%)p 1.00( 99.90%)d 0.00(  0.10%)
                                         0.0000  0.0000  0.0000  0.0000  0.0000
                                        -0.0295  0.0005  0.0000  0.0000  0.9989
                                        -0.0171 -0.0012  0.0009  0.0000  0.0000
                                         0.0000  0.0000  0.0000 -0.0009  0.0316
                                         0.0000  0.0000
  17. (0.03886) BD*( 3) C  2- C  3
               ( 51.63%)   0.7185* C  2 s(  0.00%)p 1.00( 99.81%)d 0.00(  0.19%)
                                         0.0000  0.0000  0.0000  0.0000  0.9986
                                        -0.0014 -0.0063 -0.0005  0.0295  0.0000
                                        -0.0002  0.0000  0.0000  0.0000  0.0000
                                         0.0000  0.0000 -0.0434 -0.0013  0.0000
                                         0.0000
               ( 48.37%)  -0.6955* C  3 s(  0.00%)p 1.00( 99.90%)d 0.00(  0.10%)
                                         0.0000  0.0000  0.0000  0.0000  0.0000
                                         0.9989 -0.0171 -0.0012  0.0009  0.0295
                                        -0.0005  0.0000  0.0000  0.0000  0.0000
                                         0.0000  0.0000  0.0000  0.0316  0.0009
                                         0.0000  0.0000
  18. (0.02847) BD*( 1) C  3- C  4
               ( 50.00%)   0.7071* C  3 s( 46.01%)p 1.17( 53.91%)d 0.00(  0.08%)
                                         0.0000  0.6780  0.0150 -0.0143  0.0004
                                         0.0000  0.0000  0.0000  0.0000  0.0000
                                         0.0000  0.0000  0.0000 -0.7342  0.0023
                                        -0.0087 -0.0011  0.0000  0.0000  0.0000
                                         0.0000  0.0285
               ( 50.00%)  -0.7071* C  4 s( 46.01%)p 1.17( 53.91%)d 0.00(  0.08%)
                                         0.0000  0.6780  0.0150 -0.0143  0.0004
                                         0.0000  0.0000  0.0000  0.0000  0.0000
                                         0.0000  0.0000  0.0000  0.7342 -0.0023
                                         0.0087  0.0011  0.0000  0.0000  0.0000
                                         0.0000  0.0285
  19. (0.01800) BD*( 1) C  4- C  5
               ( 48.27%)   0.6948* C  4 s( 53.83%)p 0.86( 46.09%)d 0.00(  0.09%)
                                         0.0000 -0.7333  0.0198 -0.0102  0.0003
                                         0.0000  0.0000  0.0000  0.0000  0.0000
                                         0.0000  0.0000  0.0000  0.6780  0.0319
                                        -0.0130 -0.0036  0.0000  0.0000  0.0000
                                         0.0000 -0.0292
               ( 51.73%)  -0.7192* C  5 s( 53.45%)p 0.87( 46.39%)d 0.00(  0.16%)
                                         0.0000 -0.7310  0.0070  0.0006  0.0000
                                         0.0000  0.0000  0.0000  0.0000  0.0000
                                         0.0000  0.0000 -0.6809  0.0059 -0.0135
                                        -0.0083  0.0000  0.0000  0.0000  0.0000
                                        -0.0405
  20. (0.03886) BD*( 2) C  4- C  5
               ( 48.37%)   0.6955* C  4 s(  0.00%)p 1.00( 99.90%)d 0.00(  0.10%)
                                         0.0000  0.0000  0.0000  0.0000  0.0000
                                        -0.9962  0.0171  0.0012 -0.0009 -0.0794
                                         0.0014  0.0001 -0.0001  0.0000  0.0000
                                         0.0000  0.0000  0.0000  0.0315  0.0025
                                         0.0000  0.0000
               ( 51.63%)  -0.7185* C  5 s(  0.00%)p 1.00( 99.81%)d 0.00(  0.19%)
                                         0.0000  0.0000  0.0000  0.0000 -0.9959
                                         0.0014  0.0062  0.0005 -0.0793  0.0001
                                         0.0005  0.0000  0.0000  0.0000  0.0000
                                         0.0000  0.0000 -0.0433 -0.0034  0.0000
                                         0.0000
  21. (0.03886) BD*( 3) C  4- C  5
               ( 48.37%)   0.6955* C  4 s(  0.00%)p 1.00( 99.90%)d 0.00(  0.10%)
                                         0.0000  0.0000  0.0000  0.0000  0.0000
                                         0.0794 -0.0014 -0.0001  0.0001 -0.9962
                                         0.0171  0.0012 -0.0009  0.0000  0.0000
                                         0.0000  0.0000  0.0000 -0.0025  0.0315
                                         0.0000  0.0000
               ( 51.63%)  -0.7185* C  5 s(  0.00%)p 1.00( 99.81%)d 0.00(  0.19%)
                                         0.0000  0.0000  0.0000  0.0000  0.0793
                                        -0.0001 -0.0005  0.0000 -0.9959  0.0014
                                         0.0062  0.0005  0.0000  0.0000  0.0000
                                         0.0000  0.0000  0.0034 -0.0433  0.0000
                                         0.0000
  22. (0.00676) BD*( 1) C  5- H  6
               ( 38.61%)   0.6213* C  5 s( 46.26%)p 1.16( 53.64%)d 0.00(  0.10%)
                                         0.0000 -0.6801 -0.0039 -0.0007  0.0000
                                         0.0000  0.0000  0.0000  0.0000  0.0000
                                         0.0000  0.0000  0.7322  0.0134  0.0008
                                        -0.0031  0.0000  0.0000  0.0000  0.0000
                                        -0.0324
               ( 61.39%)  -0.7835* H  6 s( 99.91%)p 0.00(  0.09%)
                                        -0.9995  0.0038 -0.0003  0.0000  0.0000
                                         0.0000 -0.0300
  23. (0.00083) RY ( 1) H  1            s( 84.92%)p 0.18( 15.08%)
                                        -0.0081  0.9209 -0.0332 -0.0006  0.0000
                                         0.0000 -0.3883
  24. (0.00013) RY ( 2) H  1            s( 77.55%)p 0.29( 22.45%)
                                         0.0149  0.2306  0.8497  0.0050  0.0000
                                         0.0000  0.4739
  25. (0.00010) RY ( 3) H  1            s(  0.00%)p 1.00(100.00%)
  26. (0.00010) RY ( 4) H  1            s(  0.00%)p 1.00(100.00%)
  27. (0.00000) RY ( 5) H  1            s( 94.63%)p 0.06(  5.37%)
  28. (0.00000) RY ( 6) H  1            s( 42.99%)p 1.33( 57.01%)
  29. (0.00058) RY ( 1) C  2            s(  0.00%)p 1.00( 98.69%)d 0.01(  1.31%)
                                         0.0000  0.0000  0.0000  0.0000  0.0000
                                         0.0048 -0.0003  0.0007 -0.0039  0.9813
                                        -0.0702  0.1378  0.0000  0.0000  0.0000
                                         0.0000  0.0000 -0.0006 -0.1144  0.0000
                                         0.0000
  30. (0.00058) RY ( 2) C  2            s(  0.00%)p 1.00( 98.69%)d 0.01(  1.31%)
                                         0.0000  0.0000  0.0000  0.0000 -0.0039
                                         0.9813 -0.0702  0.1378  0.0000 -0.0048
                                         0.0003 -0.0007  0.0000  0.0000  0.0000
                                         0.0000  0.0000 -0.1144  0.0006  0.0000
                                         0.0000
  31. (0.00051) RY ( 3) C  2            s( 52.35%)p 0.91( 47.65%)d 0.00(  0.00%)
                                         0.0000  0.0059  0.7220 -0.0472  0.0000
                                         0.0000  0.0000  0.0000  0.0000  0.0000
                                         0.0000  0.0000 -0.0015 -0.2836 -0.4092
                                         0.4781  0.0000  0.0000  0.0000  0.0000
                                        -0.0037
  32. (0.00009) RY ( 4) C  2            s( 32.02%)p 2.11( 67.63%)d 0.01(  0.34%)
  33. (0.00002) RY ( 5) C  2            s( 13.17%)p 6.43( 84.68%)d 0.16(  2.15%)
  34. (0.00000) RY ( 6) C  2            s(  0.57%)p 7.84(  4.49%)d99.99( 94.93%)
  35. (0.00000) RY ( 7) C  2            s( 58.93%)p 0.69( 40.46%)d 0.01(  0.61%)
  36. (0.00000) RY ( 8) C  2            s( 43.24%)p 1.27( 55.06%)d 0.04(  1.69%)
  37. (0.00000) RY ( 9) C  2            s(  0.00%)p 1.00( 96.71%)d 0.03(  3.29%)
  38. (0.00000) RY (10) C  2            s(  0.00%)p 1.00( 99.24%)d 0.01(  0.76%)
  39. (0.00000) RY (11) C  2            s(  0.00%)p 1.00( 99.23%)d 0.01(  0.77%)
  40. (0.00000) RY (12) C  2            s(  0.00%)p 1.00( 86.54%)d 0.16( 13.46%)
  41. (0.00000) RY (13) C  2            s(  0.00%)p 0.00(  0.00%)d 1.00(100.00%)
  42. (0.00000) RY (14) C  2            s(  0.00%)p 1.00( 15.72%)d 5.36( 84.28%)
  43. (0.00000) RY (15) C  2            s(  0.00%)p 1.00(  5.56%)d16.98( 94.44%)
  44. (0.00000) RY (16) C  2            s(  0.00%)p 0.00(  0.00%)d 1.00(100.00%)
  45. (0.00244) RY ( 1) C  3            s( 76.81%)p 0.29( 22.59%)d 0.01(  0.61%)
                                         0.0000  0.0075  0.8519  0.2052 -0.0093
                                         0.0000  0.0000  0.0000  0.0000  0.0000
                                         0.0000  0.0000  0.0000  0.0179  0.0347
                                         0.4719  0.0405  0.0000  0.0000  0.0000
                                         0.0000  0.0778
  46. (0.00203) RY ( 2) C  3            s(  0.00%)p 1.00( 77.59%)d 0.29( 22.41%)
                                         0.0000  0.0000  0.0000  0.0000  0.0000
                                         0.0000  0.0006  0.0000  0.0000  0.0300
                                         0.8773  0.0590  0.0429  0.0000  0.0000
                                         0.0000  0.0000  0.0000 -0.0003 -0.4734
                                         0.0000  0.0000
  47. (0.00203) RY ( 3) C  3            s(  0.00%)p 1.00( 77.59%)d 0.29( 22.41%)
                                         0.0000  0.0000  0.0000  0.0000  0.0000
                                         0.0300  0.8773  0.0590  0.0429  0.0000
                                        -0.0006  0.0000  0.0000  0.0000  0.0000
                                         0.0000  0.0000  0.0000 -0.4734  0.0003
                                         0.0000  0.0000
  48. (0.00069) RY ( 4) C  3            s( 22.84%)p 3.37( 76.87%)d 0.01(  0.29%)
                                         0.0000 -0.0116  0.4087  0.2462  0.0240
                                         0.0000  0.0000  0.0000  0.0000  0.0000
                                         0.0000  0.0000  0.0000  0.0048 -0.0428
                                        -0.8629  0.1489  0.0000  0.0000  0.0000
                                         0.0000  0.0542
  49. (0.00009) RY ( 5) C  3            s( 81.27%)p 0.20( 15.91%)d 0.03(  2.82%)
  50. (0.00000) RY ( 6) C  3            s(  3.78%)p 3.22( 12.17%)d22.21( 84.04%)
  51. (0.00000) RY ( 7) C  3            s(  9.39%)p 9.19( 86.27%)d 0.46(  4.34%)
  52. (0.00000) RY ( 8) C  3            s( 69.89%)p 0.38( 26.40%)d 0.05(  3.70%)
  53. (0.00000) RY ( 9) C  3            s( 36.19%)p 1.65( 59.79%)d 0.11(  4.03%)
  54. (0.00000) RY (10) C  3            s(  0.00%)p 1.00( 99.66%)d 0.00(  0.34%)
  55. (0.00000) RY (11) C  3            s(  0.00%)p 1.00( 99.95%)d 0.00(  0.05%)
  56. (0.00000) RY (12) C  3            s(  0.00%)p 1.00(100.00%)d 0.00(  0.00%)
  57. (0.00000) RY (13) C  3            s(  0.00%)p 1.00( 75.48%)d 0.32( 24.52%)
  58. (0.00000) RY (14) C  3            s(  0.00%)p 1.00( 47.37%)d 1.11( 52.63%)
  59. (0.00000) RY (15) C  3            s(  0.00%)p 0.00(  0.00%)d 1.00(100.00%)
  60. (0.00000) RY (16) C  3            s(  0.00%)p 1.00( 22.56%)d 3.43( 77.44%)
  61. (0.00000) RY (17) C  3            s(  0.00%)p 0.00(  0.00%)d 1.00(100.00%)
  62. (0.00244) RY ( 1) C  4            s( 76.81%)p 0.29( 22.59%)d 0.01(  0.61%)
                                         0.0000  0.0075  0.8519  0.2052 -0.0093
                                         0.0000  0.0000  0.0000  0.0000  0.0000
                                         0.0000  0.0000  0.0000 -0.0179 -0.0347
                                        -0.4719 -0.0405  0.0000  0.0000  0.0000
                                         0.0000  0.0778
  63. (0.00203) RY ( 2) C  4            s(  0.00%)p 1.00( 77.59%)d 0.29( 22.41%)
                                         0.0000  0.0000  0.0000  0.0000  0.0000
                                        -0.0002 -0.0060 -0.0004 -0.0003  0.0300
                                         0.8773  0.0590  0.0429  0.0000  0.0000
                                         0.0000  0.0000  0.0000 -0.0032  0.4733
                                         0.0000  0.0000
  64. (0.00203) RY ( 3) C  4            s(  0.00%)p 1.00( 77.59%)d 0.29( 22.41%)
                                         0.0000  0.0000  0.0000  0.0000  0.0000
                                         0.0300  0.8773  0.0590  0.0429  0.0002
                                         0.0060  0.0004  0.0003  0.0000  0.0000
                                         0.0000  0.0000  0.0000  0.4733  0.0032
                                         0.0000  0.0000
  65. (0.00069) RY ( 4) C  4            s( 22.84%)p 3.37( 76.87%)d 0.01(  0.29%)
                                         0.0000 -0.0116  0.4087  0.2462  0.0240
                                         0.0000  0.0000  0.0000  0.0000  0.0000
                                         0.0000  0.0000  0.0000 -0.0048  0.0428
                                         0.8629 -0.1489  0.0000  0.0000  0.0000
                                         0.0000  0.0542
  66. (0.00009) RY ( 5) C  4            s( 81.27%)p 0.20( 15.91%)d 0.03(  2.82%)
  67. (0.00000) RY ( 6) C  4            s(  3.78%)p 3.22( 12.17%)d22.21( 84.04%)
  68. (0.00000) RY ( 7) C  4            s(  9.38%)p 9.20( 86.28%)d 0.46(  4.34%)
  69. (0.00000) RY ( 8) C  4            s( 69.94%)p 0.38( 26.36%)d 0.05(  3.70%)
  70. (0.00000) RY ( 9) C  4            s( 36.15%)p 1.65( 59.82%)d 0.11(  4.03%)
  71. (0.00000) RY (10) C  4            s(  0.00%)p 1.00( 99.68%)d 0.00(  0.32%)
  72. (0.00000) RY (11) C  4            s(  0.00%)p 1.00( 99.98%)d 0.00(  0.02%)
  73. (0.00000) RY (12) C  4            s(  0.00%)p 1.00( 58.85%)d 0.70( 41.15%)
  74. (0.00000) RY (13) C  4            s(  0.00%)p 1.00( 63.67%)d 0.57( 36.33%)
  75. (0.00000) RY (14) C  4            s(  0.00%)p 1.00( 49.61%)d 1.02( 50.39%)
  76. (0.00000) RY (15) C  4            s(  0.00%)p 0.00(  0.00%)d 1.00(100.00%)
  77. (0.00000) RY (16) C  4            s(  0.00%)p 1.00( 73.22%)d 0.37( 26.78%)
  78. (0.00000) RY (17) C  4            s(  0.00%)p 0.00(  0.00%)d 1.00(100.00%)
  79. (0.00058) RY ( 1) C  5            s(  0.00%)p 1.00( 98.69%)d 0.01(  1.31%)
                                         0.0000  0.0000  0.0000  0.0000  0.0000
                                         0.0121 -0.0009  0.0017 -0.0039  0.9812
                                        -0.0702  0.1377  0.0000  0.0000  0.0000
                                         0.0000  0.0000  0.0014  0.1144  0.0000
                                         0.0000
  80. (0.00058) RY ( 2) C  5            s(  0.00%)p 1.00( 98.69%)d 0.01(  1.31%)
                                         0.0000  0.0000  0.0000  0.0000 -0.0039
                                         0.9812 -0.0702  0.1377  0.0000 -0.0121
                                         0.0009 -0.0017  0.0000  0.0000  0.0000
                                         0.0000  0.0000  0.1144 -0.0014  0.0000
                                         0.0000
  81. (0.00051) RY ( 3) C  5            s( 52.35%)p 0.91( 47.65%)d 0.00(  0.00%)
                                         0.0000  0.0059  0.7220 -0.0472  0.0000
                                         0.0000  0.0000  0.0000  0.0000  0.0000
                                         0.0000  0.0000  0.0015  0.2836  0.4092
                                        -0.4781  0.0000  0.0000  0.0000  0.0000
                                        -0.0037
  82. (0.00009) RY ( 4) C  5            s( 32.02%)p 2.11( 67.63%)d 0.01(  0.34%)
  83. (0.00002) RY ( 5) C  5            s( 13.17%)p 6.43( 84.68%)d 0.16(  2.15%)
  84. (0.00000) RY ( 6) C  5            s(  0.57%)p 7.84(  4.49%)d99.99( 94.93%)
  85. (0.00000) RY ( 7) C  5            s( 58.93%)p 0.69( 40.46%)d 0.01(  0.61%)
  86. (0.00000) RY ( 8) C  5            s( 43.25%)p 1.27( 55.06%)d 0.04(  1.69%)
  87. (0.00000) RY ( 9) C  5            s(  0.00%)p 1.00( 99.77%)d 0.00(  0.23%)
  88. (0.00000) RY (10) C  5            s(  0.00%)p 1.00( 78.19%)d 0.28( 21.81%)
  89. (0.00000) RY (11) C  5            s(  0.00%)p 1.00( 45.49%)d 1.20( 54.51%)
  90. (0.00000) RY (12) C  5            s(  0.00%)p 1.00( 26.39%)d 2.79( 73.61%)
  91. (0.00000) RY (13) C  5            s(  0.00%)p 1.00( 56.23%)d 0.78( 43.77%)
  92. (0.00000) RY (14) C  5            s(  0.00%)p 0.00(  0.00%)d 1.00(100.00%)
  93. (0.00000) RY (15) C  5            s(  0.00%)p 1.00( 96.91%)d 0.03(  3.09%)
  94. (0.00000) RY (16) C  5            s(  0.00%)p 0.00(  0.00%)d 1.00(100.00%)
  95. (0.00083) RY ( 1) H  6            s( 84.92%)p 0.18( 15.08%)
                                        -0.0081  0.9209 -0.0332 -0.0006  0.0000
                                         0.0000  0.3883
  96. (0.00013) RY ( 2) H  6            s( 77.55%)p 0.29( 22.45%)
                                         0.0149  0.2306  0.8497  0.0050  0.0000
                                         0.0000 -0.4739
  97. (0.00010) RY ( 3) H  6            s(  0.00%)p 1.00(100.00%)
  98. (0.00010) RY ( 4) H  6            s(  0.00%)p 1.00(100.00%)
  99. (0.00000) RY ( 5) H  6            s( 94.63%)p 0.06(  5.37%)
 100. (0.00000) RY ( 6) H  6            s( 42.99%)p 1.33( 57.01%)


 NHO DIRECTIONALITY AND BOND BENDING (deviation from line of nuclear centers at
                                      the position of maximum hybrid amplitude)

         [Thresholds for printing:  angular deviation  >  1.0 degree]
                                    p- or d-character  > 25.0%
                                    orbital occupancy  >  0.10e

                        Line of Centers        Hybrid 1             Hybrid 2
                        ---------------  -------------------  ------------------
           NBO            Theta   Phi    Theta   Phi    Dev   Theta   Phi    Dev
 ===============================================================================
   7. BD ( 2) C  2- C  3  180.0    0.0    91.0  271.7  89.0    89.0  271.7  89.0
   8. BD ( 3) C  2- C  3  180.0    0.0    91.0    1.7  89.0    89.0    1.7  89.0
  11. BD ( 2) C  4- C  5  180.0    0.0    91.0  184.6  89.0    89.0  184.6  89.0
  12. BD ( 3) C  4- C  5  180.0    0.0    91.0  274.6  89.0    89.0  274.6  89.0


 SECOND ORDER PERTURBATION THEORY ANALYSIS OF FOCK MATRIX IN NBO BASIS

     Threshold for printing:   0.50 kcal/mol
                                                          E(2) E(NL)-E(L) F(L,NL)
      Donor (L) NBO              Acceptor (NL) NBO      kcal/mol   a.u.    a.u.
 ===============================================================================

 within unit  1
    5. BD ( 1) H  1- C  2      15. BD*( 1) C  2- C  3     10.21    2.10   0.131
    5. BD ( 1) H  1- C  2      18. BD*( 1) C  3- C  4      5.61    1.63   0.085
    5. BD ( 1) H  1- C  2      27. RY ( 5) H  1            1.41    2.32   0.051
    5. BD ( 1) H  1- C  2      31. RY ( 3) C  2            1.29    3.73   0.062
    5. BD ( 1) H  1- C  2      34. RY ( 6) C  2            1.06    4.30   0.060
    5. BD ( 1) H  1- C  2      35. RY ( 7) C  2            1.37   12.04   0.115
    5. BD ( 1) H  1- C  2      36. RY ( 8) C  2            1.56    8.16   0.101
    5. BD ( 1) H  1- C  2      45. RY ( 1) C  3            6.85    3.41   0.136
    5. BD ( 1) H  1- C  2      50. RY ( 6) C  3            0.83    4.13   0.052
    5. BD ( 1) H  1- C  2      51. RY ( 7) C  3            1.61    7.81   0.100
    5. BD ( 1) H  1- C  2      52. RY ( 8) C  3            2.11   12.93   0.148
    5. BD ( 1) H  1- C  2      53. RY ( 9) C  3            0.62    9.94   0.070
    6. BD ( 1) C  2- C  3      14. BD*( 1) H  1- C  2      6.26    1.69   0.092
    6. BD ( 1) C  2- C  3      18. BD*( 1) C  3- C  4     14.93    1.86   0.149
    6. BD ( 1) C  2- C  3      19. BD*( 1) C  4- C  5      3.02    2.33   0.075
    6. BD ( 1) C  2- C  3      23. RY ( 1) H  1            0.83    3.40   0.047
    6. BD ( 1) C  2- C  3      24. RY ( 2) H  1            0.66    2.27   0.035
    6. BD ( 1) C  2- C  3      65. RY ( 4) C  4            1.02    4.23   0.059
    7. BD ( 2) C  2- C  3      21. BD*( 3) C  4- C  5     18.50    0.73   0.104
    7. BD ( 2) C  2- C  3      63. RY ( 2) C  4            2.33    1.37   0.050
    8. BD ( 3) C  2- C  3      20. BD*( 2) C  4- C  5     18.50    0.73   0.104
    8. BD ( 3) C  2- C  3      64. RY ( 3) C  4            2.33    1.37   0.050
    9. BD ( 1) C  3- C  4      14. BD*( 1) H  1- C  2      1.79    1.58   0.047
    9. BD ( 1) C  3- C  4      15. BD*( 1) C  2- C  3     17.40    2.22   0.176
    9. BD ( 1) C  3- C  4      19. BD*( 1) C  4- C  5     17.40    2.22   0.176
    9. BD ( 1) C  3- C  4      22. BD*( 1) C  5- H  6      1.79    1.58   0.047
    9. BD ( 1) C  3- C  4      27. RY ( 5) H  1            0.57    2.44   0.033
    9. BD ( 1) C  3- C  4      31. RY ( 3) C  2            2.21    3.85   0.082
    9. BD ( 1) C  3- C  4      34. RY ( 6) C  2            0.68    4.42   0.049
    9. BD ( 1) C  3- C  4      50. RY ( 6) C  3            0.67    4.25   0.048
    9. BD ( 1) C  3- C  4      52. RY ( 8) C  3            0.99   13.05   0.102
    9. BD ( 1) C  3- C  4      67. RY ( 6) C  4            0.67    4.25   0.048
    9. BD ( 1) C  3- C  4      69. RY ( 8) C  4            0.99   13.05   0.102
    9. BD ( 1) C  3- C  4      81. RY ( 3) C  5            2.21    3.85   0.082
    9. BD ( 1) C  3- C  4      84. RY ( 6) C  5            0.68    4.42   0.049
    9. BD ( 1) C  3- C  4      99. RY ( 5) H  6            0.57    2.44   0.033
   10. BD ( 1) C  4- C  5      15. BD*( 1) C  2- C  3      3.02    2.33   0.075
   10. BD ( 1) C  4- C  5      18. BD*( 1) C  3- C  4     14.93    1.86   0.149
   10. BD ( 1) C  4- C  5      22. BD*( 1) C  5- H  6      6.26    1.69   0.092
   10. BD ( 1) C  4- C  5      48. RY ( 4) C  3            1.02    4.23   0.059
   10. BD ( 1) C  4- C  5      95. RY ( 1) H  6            0.83    3.40   0.047
   10. BD ( 1) C  4- C  5      96. RY ( 2) H  6            0.66    2.27   0.035
   11. BD ( 2) C  4- C  5      17. BD*( 3) C  2- C  3     18.50    0.73   0.104
   11. BD ( 2) C  4- C  5      47. RY ( 3) C  3            2.31    1.37   0.050
   12. BD ( 3) C  4- C  5      16. BD*( 2) C  2- C  3     18.50    0.73   0.104
   12. BD ( 3) C  4- C  5      46. RY ( 2) C  3            2.31    1.37   0.050
   13. BD ( 1) C  5- H  6      18. BD*( 1) C  3- C  4      5.61    1.63   0.085
   13. BD ( 1) C  5- H  6      19. BD*( 1) C  4- C  5     10.21    2.10   0.131
   13. BD ( 1) C  5- H  6      62. RY ( 1) C  4            6.85    3.41   0.136
   13. BD ( 1) C  5- H  6      67. RY ( 6) C  4            0.83    4.13   0.052
   13. BD ( 1) C  5- H  6      68. RY ( 7) C  4            1.61    7.81   0.100
   13. BD ( 1) C  5- H  6      69. RY ( 8) C  4            2.11   12.93   0.148
   13. BD ( 1) C  5- H  6      70. RY ( 9) C  4            0.62    9.93   0.070
   13. BD ( 1) C  5- H  6      81. RY ( 3) C  5            1.29    3.73   0.062
   13. BD ( 1) C  5- H  6      84. RY ( 6) C  5            1.06    4.30   0.060
   13. BD ( 1) C  5- H  6      85. RY ( 7) C  5            1.37   12.04   0.115
   13. BD ( 1) C  5- H  6      86. RY ( 8) C  5            1.56    8.16   0.101
   13. BD ( 1) C  5- H  6      99. RY ( 5) H  6            1.41    2.32   0.051


 NATURAL BOND ORBITALS (Summary):

                                                     Principal Delocalizations
           NBO                 Occupancy    Energy   (geminal,vicinal,remote)
 ===============================================================================
 Molecular unit  1  (C4H2)
 ------ Lewis --------------------------------------
    1. CR ( 1) C  2             2.00000   -11.25253
    2. CR ( 1) C  3             2.00000   -11.26286
    3. CR ( 1) C  4             2.00000   -11.26286
    4. CR ( 1) C  5             2.00000   -11.25253
    5. BD ( 1) H  1- C  2       1.98863    -0.74817  15(g),45(v),18(v),52(v)
                                                     51(v),36(g),27(g),35(g)
                                                     31(g),34(g),50(v),53(v)
    6. BD ( 1) C  2- C  3       1.97978    -0.97820  18(g),14(g),19(v),65(v)
                                                     23(v),24(v)
    7. BD ( 2) C  2- C  3       1.95843    -0.42078  21(v),63(v)
    8. BD ( 3) C  2- C  3       1.95843    -0.42078  20(v),64(v)
    9. BD ( 1) C  3- C  4       1.97558    -0.86669  15(g),19(g),31(v),81(v)
                                                     14(v),22(v),52(g),69(g)
                                                     34(v),84(v),50(g),67(g)
                                                     27(r),99(r)
   10. BD ( 1) C  4- C  5       1.97978    -0.97820  18(g),22(g),15(v),48(v)
                                                     95(v),96(v)
   11. BD ( 2) C  4- C  5       1.95843    -0.42078  17(v),47(v)
   12. BD ( 3) C  4- C  5       1.95843    -0.42078  16(v),46(v)
   13. BD ( 1) C  5- H  6       1.98863    -0.74817  19(g),62(v),18(v),69(v)
                                                     68(v),86(g),99(g),85(g)
                                                     81(g),84(g),67(v),70(v)
 ------ non-Lewis ----------------------------------
   14. BD*( 1) H  1- C  2       0.00676     0.71478
   15. BD*( 1) C  2- C  3       0.01800     1.35595
   16. BD*( 2) C  2- C  3       0.03886     0.31349
   17. BD*( 3) C  2- C  3       0.03886     0.31349
   18. BD*( 1) C  3- C  4       0.02847     0.87693
   19. BD*( 1) C  4- C  5       0.01800     1.35595
   20. BD*( 2) C  4- C  5       0.03886     0.31349
   21. BD*( 3) C  4- C  5       0.03886     0.31349
   22. BD*( 1) C  5- H  6       0.00676     0.71478
   23. RY ( 1) H  1             0.00083     2.41871
   24. RY ( 2) H  1             0.00013     1.29287
   25. RY ( 3) H  1             0.00010     1.90172
   26. RY ( 4) H  1             0.00010     1.90172
   27. RY ( 5) H  1             0.00000     1.57653
   28. RY ( 6) H  1             0.00000     2.02389
   29. RY ( 1) C  2             0.00058     0.49153
   30. RY ( 2) C  2             0.00058     0.49153
   31. RY ( 3) C  2             0.00051     2.97985
   32. RY ( 4) C  2             0.00009     1.73248
   33. RY ( 5) C  2             0.00002     0.74156
   34. RY ( 6) C  2             0.00000     3.54875
   35. RY ( 7) C  2             0.00000    11.29626
   36. RY ( 8) C  2             0.00000     7.41206
   37. RY ( 9) C  2             0.00000     2.21776
   38. RY (10) C  2             0.00000     0.73299
   39. RY (11) C  2             0.00000     1.45578
   40. RY (12) C  2             0.00000     3.07268
   41. RY (13) C  2             0.00000     1.61949
   42. RY (14) C  2             0.00000     2.08237
   43. RY (15) C  2             0.00000     2.21451
   44. RY (16) C  2             0.00000     1.61949
   45. RY ( 1) C  3             0.00244     2.65723
   46. RY ( 2) C  3             0.00203     0.94749
   47. RY ( 3) C  3             0.00203     0.94749
   48. RY ( 4) C  3             0.00069     3.25573
   49. RY ( 5) C  3             0.00009     3.48630
   50. RY ( 6) C  3             0.00000     3.38184
   51. RY ( 7) C  3             0.00000     7.06434
   52. RY ( 8) C  3             0.00000    12.18044
   53. RY ( 9) C  3             0.00000     9.18917
   54. RY (10) C  3             0.00000     2.15127
   55. RY (11) C  3             0.00000     0.58971
   56. RY (12) C  3             0.00000     2.94739
   57. RY (13) C  3             0.00000     1.74332
   58. RY (14) C  3             0.00000     1.56921
   59. RY (15) C  3             0.00000     1.62301
   60. RY (16) C  3             0.00000     1.92670
   61. RY (17) C  3             0.00000     1.62301
   62. RY ( 1) C  4             0.00244     2.65723
   63. RY ( 2) C  4             0.00203     0.94749
   64. RY ( 3) C  4             0.00203     0.94749
   65. RY ( 4) C  4             0.00069     3.25573
   66. RY ( 5) C  4             0.00009     3.48630
   67. RY ( 6) C  4             0.00000     3.38183
   68. RY ( 7) C  4             0.00000     7.06664
   69. RY ( 8) C  4             0.00000    12.18639
   70. RY ( 9) C  4             0.00000     9.18093
   71. RY (10) C  4             0.00000     1.21543
   72. RY (11) C  4             0.00000     2.32272
   73. RY (12) C  4             0.00000     1.45092
   74. RY (13) C  4             0.00000     1.69015
   75. RY (14) C  4             0.00000     1.92718
   76. RY (15) C  4             0.00000     1.62301
   77. RY (16) C  4             0.00000     2.32119
   78. RY (17) C  4             0.00000     1.62301
   79. RY ( 1) C  5             0.00058     0.49153
   80. RY ( 2) C  5             0.00058     0.49153
   81. RY ( 3) C  5             0.00051     2.97985
   82. RY ( 4) C  5             0.00009     1.73248
   83. RY ( 5) C  5             0.00002     0.74156
   84. RY ( 6) C  5             0.00000     3.54875
   85. RY ( 7) C  5             0.00000    11.29534
   86. RY ( 8) C  5             0.00000     7.41298
   87. RY ( 9) C  5             0.00000     2.33778
   88. RY (10) C  5             0.00000     1.02316
   89. RY (11) C  5             0.00000     1.59746
   90. RY (12) C  5             0.00000     1.67210
   91. RY (13) C  5             0.00000     1.95281
   92. RY (14) C  5             0.00000     1.61949
   93. RY (15) C  5             0.00000     3.19279
   94. RY (16) C  5             0.00000     1.61949
   95. RY ( 1) H  6             0.00083     2.41871
   96. RY ( 2) H  6             0.00013     1.29287
   97. RY ( 3) H  6             0.00010     1.90172
   98. RY ( 4) H  6             0.00010     1.90172
   99. RY ( 5) H  6             0.00000     1.57653
  100. RY ( 6) H  6             0.00000     2.02389
          -------------------------------
                 Total Lewis   25.74614  ( 99.0236%)
           Valence non-Lewis    0.23342  (  0.8978%)
           Rydberg non-Lewis    0.02044  (  0.0786%)
          -------------------------------
               Total unit  1   26.00000  (100.0000%)
              Charge unit  1    0.00000

 $CHOOSE
   BOND S 1 2 T 2 3 S 3 4 T 4 5 S 5 6 END
 $END

 NBO analysis completed in 0.19 CPU seconds (0 wall seconds)
 Maximum scratch memory used by NBO was 460722 words (3.52 MB)
 Maximum scratch memory used by G16NBO was 24463 words (0.19 MB)


 LEWIS: Delete all non-Lewis NBOs
 Deletion of the following orbitals from the NBO Fock matrix:
   14  15  16  17  18  19  20  21  22  23  24  25  26  27  28  29  30  31  32  33
   34  35  36  37  38  39  40  41  42  43  44  45  46  47  48  49  50  51  52  53
   54  55  56  57  58  59  60  61  62  63  64  65  66  67  68  69  70  71  72  73
   74  75  76  77  78  79  80  81  82  83  84  85  86  87  88  89  90  91  92  93
   94  95  96  97  98  99 100

 Orbital occupancies:

       Orbital                         No deletions  This deletion    Change
 ------------------------------------------------------------------------------
    1. CR ( 1) C  2                      2.00000        2.00000       0.00000
    2. CR ( 1) C  3                      2.00000        2.00000       0.00000
    3. CR ( 1) C  4                      2.00000        2.00000       0.00000
    4. CR ( 1) C  5                      2.00000        2.00000       0.00000
    5. BD ( 1) H  1- C  2                1.98863        2.00000       0.01137
    6. BD ( 1) C  2- C  3                1.97978        2.00000       0.02022
    7. BD ( 2) C  2- C  3                1.95843        2.00000       0.04157
    8. BD ( 3) C  2- C  3                1.95843        2.00000       0.04157
    9. BD ( 1) C  3- C  4                1.97558        2.00000       0.02442
   10. BD ( 1) C  4- C  5                1.97978        2.00000       0.02022
   11. BD ( 2) C  4- C  5                1.95843        2.00000       0.04157
   12. BD ( 3) C  4- C  5                1.95843        2.00000       0.04157
   13. BD ( 1) C  5- H  6                1.98863        2.00000       0.01137
   14. BD*( 1) H  1- C  2                0.00676        0.00000      -0.00676
   15. BD*( 1) C  2- C  3                0.01800        0.00000      -0.01800
   16. BD*( 2) C  2- C  3                0.03886        0.00000      -0.03886
   17. BD*( 3) C  2- C  3                0.03886        0.00000      -0.03886
   18. BD*( 1) C  3- C  4                0.02847        0.00000      -0.02847
   19. BD*( 1) C  4- C  5                0.01800        0.00000      -0.01800
   20. BD*( 2) C  4- C  5                0.03886        0.00000      -0.03886
   21. BD*( 3) C  4- C  5                0.03886        0.00000      -0.03886
   22. BD*( 1) C  5- H  6                0.00676        0.00000      -0.00676
   23. RY ( 1) H  1                      0.00083        0.00000      -0.00083
   24. RY ( 2) H  1                      0.00013        0.00000      -0.00013
   25. RY ( 3) H  1                      0.00010        0.00000      -0.00010
   26. RY ( 4) H  1                      0.00010        0.00000      -0.00010
   27. RY ( 5) H  1                      0.00000        0.00000       0.00000
   28. RY ( 6) H  1                      0.00000        0.00000       0.00000
   29. RY ( 1) C  2                      0.00058        0.00000      -0.00058
   30. RY ( 2) C  2                      0.00058        0.00000      -0.00058
   31. RY ( 3) C  2                      0.00051        0.00000      -0.00051
   32. RY ( 4) C  2                      0.00009        0.00000      -0.00009
   33. RY ( 5) C  2                      0.00002        0.00000      -0.00002
   34. RY ( 6) C  2                      0.00000        0.00000       0.00000
   35. RY ( 7) C  2                      0.00000        0.00000       0.00000
   36. RY ( 8) C  2                      0.00000        0.00000       0.00000
   37. RY ( 9) C  2                      0.00000        0.00000       0.00000
   38. RY (10) C  2                      0.00000        0.00000       0.00000
   39. RY (11) C  2                      0.00000        0.00000       0.00000
   40. RY (12) C  2                      0.00000        0.00000       0.00000
   41. RY (13) C  2                      0.00000        0.00000       0.00000
   42. RY (14) C  2                      0.00000        0.00000       0.00000
   43. RY (15) C  2                      0.00000        0.00000       0.00000
   44. RY (16) C  2                      0.00000        0.00000       0.00000
   45. RY ( 1) C  3                      0.00244        0.00000      -0.00244
   46. RY ( 2) C  3                      0.00203        0.00000      -0.00203
   47. RY ( 3) C  3                      0.00203        0.00000      -0.00203
   48. RY ( 4) C  3                      0.00069        0.00000      -0.00069
   49. RY ( 5) C  3                      0.00009        0.00000      -0.00009
   50. RY ( 6) C  3                      0.00000        0.00000       0.00000
   51. RY ( 7) C  3                      0.00000        0.00000       0.00000
   52. RY ( 8) C  3                      0.00000        0.00000       0.00000
   53. RY ( 9) C  3                      0.00000        0.00000       0.00000
   54. RY (10) C  3                      0.00000        0.00000       0.00000
   55. RY (11) C  3                      0.00000        0.00000       0.00000
   56. RY (12) C  3                      0.00000        0.00000       0.00000
   57. RY (13) C  3                      0.00000        0.00000       0.00000
   58. RY (14) C  3                      0.00000        0.00000       0.00000
   59. RY (15) C  3                      0.00000        0.00000       0.00000
   60. RY (16) C  3                      0.00000        0.00000       0.00000
   61. RY (17) C  3                      0.00000        0.00000       0.00000
   62. RY ( 1) C  4                      0.00244        0.00000      -0.00244
   63. RY ( 2) C  4                      0.00203        0.00000      -0.00203
   64. RY ( 3) C  4                      0.00203        0.00000      -0.00203
   65. RY ( 4) C  4                      0.00069        0.00000      -0.00069
   66. RY ( 5) C  4                      0.00009        0.00000      -0.00009
   67. RY ( 6) C  4                      0.00000        0.00000       0.00000
   68. RY ( 7) C  4                      0.00000        0.00000       0.00000
   69. RY ( 8) C  4                      0.00000        0.00000       0.00000
   70. RY ( 9) C  4                      0.00000        0.00000       0.00000
   71. RY (10) C  4                      0.00000        0.00000       0.00000
   72. RY (11) C  4                      0.00000        0.00000       0.00000
   73. RY (12) C  4                      0.00000        0.00000       0.00000
   74. RY (13) C  4                      0.00000        0.00000       0.00000
   75. RY (14) C  4                      0.00000        0.00000       0.00000
   76. RY (15) C  4                      0.00000        0.00000       0.00000
   77. RY (16) C  4                      0.00000        0.00000       0.00000
   78. RY (17) C  4                      0.00000        0.00000       0.00000
   79. RY ( 1) C  5                      0.00058        0.00000      -0.00058
   80. RY ( 2) C  5                      0.00058        0.00000      -0.00058
   81. RY ( 3) C  5                      0.00051        0.00000      -0.00051
   82. RY ( 4) C  5                      0.00009        0.00000      -0.00009
   83. RY ( 5) C  5                      0.00002        0.00000      -0.00002
   84. RY ( 6) C  5                      0.00000        0.00000       0.00000
   85. RY ( 7) C  5                      0.00000        0.00000       0.00000
   86. RY ( 8) C  5                      0.00000        0.00000       0.00000
   87. RY ( 9) C  5                      0.00000        0.00000       0.00000
   88. RY (10) C  5                      0.00000        0.00000       0.00000
   89. RY (11) C  5                      0.00000        0.00000       0.00000
   90. RY (12) C  5                      0.00000        0.00000       0.00000
   91. RY (13) C  5                      0.00000        0.00000       0.00000
   92. RY (14) C  5                      0.00000        0.00000       0.00000
   93. RY (15) C  5                      0.00000        0.00000       0.00000
   94. RY (16) C  5                      0.00000        0.00000       0.00000
   95. RY ( 1) H  6                      0.00083        0.00000      -0.00083
   96. RY ( 2) H  6                      0.00013        0.00000      -0.00013
   97. RY ( 3) H  6                      0.00010        0.00000      -0.00010
   98. RY ( 4) H  6                      0.00010        0.00000      -0.00010
   99. RY ( 5) H  6                      0.00000        0.00000       0.00000
  100. RY ( 6) H  6                      0.00000        0.00000       0.00000

 NEXT STEP:  Perform one SCF cycle to evaluate the energy of the new density
             matrix constructed from the deleted NBO Fock matrix.

 ------------------------------------------------------------------------------
 Opening RunExU unformatted file "/scr/ericg/c4h2/Gau-11475.EUF"
 Read unf file /scr/ericg/c4h2/Gau-11475.EUF:
 Label Gaussian matrix elements                                         IVers= 1 NLab= 2 Version=ES64L-G16RevA.03
 Title Butadiyne...rhf/6-311++g**                                      
 NAtoms=     6 NBasis=   102 NBsUse=   100 ICharg=     0 Multip=     1 NE=    26 Len12L=8 Len4L=8 IOpCl= 0 ICGU= -1
 GAUSSIAN SCALARS                    NI= 1 NR= 1 NTot=       1 LenBuf=    2 NRI=1 N=    1000
 ALPHA DENSITY MATRIX                NI= 0 NR= 1 NTot=    5253 LenBuf= 4000 NRI=1 N=    -102     102
 Store file  10528 Len=    5253.
 ALPHA MO COEFFICIENTS               NI= 0 NR= 1 NTot=   10200 LenBuf= 4000 NRI=1 N=     102     100
 Store file  10524 Len=   10200.
 NPA CHARGES                         NI= 0 NR= 1 NTot=       6 LenBuf= 4000 NRI=1 N=       6
 Recovered energy= -152.537559838     dipole=      0.000000000000      0.000000000000     -0.000000000000
 Keep R1 ints in memory in symmetry-blocked form, NReq=15758948.
 Requested convergence on RMS density matrix=1.00D-08 within   1 cycles.
 Requested convergence on MAX density matrix=1.00D-06.
 Requested convergence on             energy=1.00D-06.
 No special actions if energy rises.
 Fock symm off for IB=2 I1=    1 I=   27 J=    9 Cut=1.00D-07 Err=2.83D-01
 Fock matrix is not symmetric: symmetry in diagonalization turned off.
 >>>>>>>>>> Convergence criterion not met.
 SCF Done:  E(RHF) =  -152.276815280     A.U. after    2 cycles
            NFock=  1  Conv=0.94D-01     -V/T= 1.9971
 Running external command "gaunbo6 R"
         input file       "/scr/ericg/c4h2/Gau-11475.EIn"
         output file      "/scr/ericg/c4h2/Gau-11475.EOu"
         message file     "/scr/ericg/c4h2/Gau-11475.EMs"
         fchk file        "/scr/ericg/c4h2/Gau-11475.EFC"
         mat. el file     "/scr/ericg/c4h2/Gau-11475.EUF"

 Writing WrtUnf unformatted file "/scr/ericg/c4h2/Gau-11475.EUF"
 Gaussian matrix elements                                         Version   2 NLab=11 Len12L=8 Len4L=8
 Write SHELL TO ATOM MAP                   from file     0 offset           0 length                  34 to matrix element file.
 Write SHELL TYPES                         from file     0 offset           0 length                  34 to matrix element file.
 Write NUMBER OF PRIMITIVES PER SHELL      from file     0 offset           0 length                  34 to matrix element file.
 Write PRIMITIVE EXPONENTS                 from file     0 offset           0 length                  66 to matrix element file.
 Write CONTRACTION COEFFICIENTS            from file     0 offset           0 length                  66 to matrix element file.
 Write P(S=P) CONTRACTION COEFFICIENTS     from file     0 offset           0 length                  66 to matrix element file.
 Write COORDINATES OF EACH SHELL           from file     0 offset           0 length                 102 to matrix element file.
 Write BONDS PER ATOM                      from file     0 offset           0 length                   6 to matrix element file.
 Write BONDED ATOMS                        from file     0 offset           0 length                  10 to matrix element file.
 Write BOND TYPES                          from file     0 offset           0 length                  10 to matrix element file.
 Write GAUSSIAN SCALARS                    from file   501 offset           0 to matrix element file.
 Write INTEGER ISO                         from file     0 offset           0 length                   6 to matrix element file.
 Write INTEGER SPIN                        from file     0 offset           0 length                   6 to matrix element file.
 Write REAL ZEFFECTIVE                     from file     0 offset           0 length                   6 to matrix element file.
 Write REAL GFACTOR                        from file     0 offset           0 length                   6 to matrix element file.
 Write REAL ZNUCLEAR                       from file     0 offset           0 length                   6 to matrix element file.
 Write NUCLEAR GRADIENT                    from file 10584 offset           0 length                  18 to matrix element file.
 Array NUCLEAR FORCE CONSTANTS              on  file 10585 does not exist.
 Write ELECTRIC DIPOLE MOMENT              from file     0 offset           0 length                   3 to matrix element file.
 Write OVERLAP                             from file   514 offset           0 length                5253 to matrix element file.
 Write CORE HAMILTONIAN ALPHA              from file   515 offset           0 length                5253 to matrix element file.
 Write CORE HAMILTONIAN BETA               from file   515 offset        5253 length                5253 to matrix element file.
 Write KINETIC ENERGY                      from file   516 offset           0 length                5253 to matrix element file.
 Write ORTHOGONAL BASIS                    from file   685 offset           0 length               10200 to matrix element file.
 Write DIPOLE INTEGRALS                    from file   518 offset           0 length               15759 to matrix element file.
 Array DIP VEL INTEGRALS                    on  file   572 does not exist.
 Array R X DEL INTEGRALS                    on  file   572 does not exist.
 Write ALPHA ORBITAL ENERGIES              from file     0 offset           0 length                 100 to matrix element file.
 Write ALPHA MO COEFFICIENTS               from file 10524 offset           0 length               10200 to matrix element file.
 Write ALPHA DENSITY MATRIX                from file     0 offset           0 length                5253 to matrix element file.
 Write ALPHA SCF DENSITY MATRIX            from file 10528 offset           0 length                5253 to matrix element file.
 Write ALPHA FOCK MATRIX                   from file 10536 offset           0 length                5253 to matrix element file.
 No 2e integrals to process.
 Perform NBO analysis...executing G16NBO...

 ------------------------------------------------------------------------------
   Energy of deletion :       -152.276815280
     Total SCF energy :       -152.537559838
                          -------------------
        Energy change :          0.260745 a.u.,         163.620 kcal/mol
 ------------------------------------------------------------------------------

 Opening RunExU unformatted file "/scr/ericg/c4h2/Gau-11475.EUF"
 Read unf file /scr/ericg/c4h2/Gau-11475.EUF:
 Label Gaussian matrix elements                                         IVers= 1 NLab= 2 Version=ES64L-G16RevA.03
 Title Butadiyne...rhf/6-311++g**                                      
 NAtoms=     6 NBasis=   102 NBsUse=   100 ICharg=     0 Multip=     1 NE=    26 Len12L=8 Len4L=8 IOpCl= 0 ICGU= -1
 GAUSSIAN SCALARS                    NI= 1 NR= 1 NTot=       1 LenBuf=    2 NRI=1 N=    1000
 Recovered energy= -152.276815280     dipole=      0.000000000000      0.000000000000     -0.000000000000

 This type of calculation cannot be archived.


 WOMEN HOLD UP HALF THE SKY. -- MAO TSE TUNG
 Job cpu time:       0 days  0 hours  0 minutes 10.1 seconds.
 Elapsed time:       0 days  0 hours  0 minutes  2.7 seconds.
 File lengths (MBytes):  RWF=     10 Int=      0 D2E=      0 Chk=      2 Scr=      1
 Normal termination of Gaussian 16 at Mon May 18 16:02:46 2020.
