 Entering Gaussian System, Link 0=/opt/g16.a03/g16/g16
 Initial command:
 /opt/g16.a03/g16/l1.exe "/scr/ericg/tutdel/Gau-13645.inp" -scrdir="/scr/ericg/tutdel/"
 Entering Link 1 = /opt/g16.a03/g16/l1.exe PID=     13647.
  
 Copyright (c) 1988,1990,1992,1993,1995,1998,2003,2009,2016,
            Gaussian, Inc.  All Rights Reserved.
  
 This is part of the Gaussian(R) 16 program.  It is based on
 the Gaussian(R) 09 system (copyright 2009, Gaussian, Inc.),
 the Gaussian(R) 03 system (copyright 2003, Gaussian, Inc.),
 the Gaussian(R) 98 system (copyright 1998, Gaussian, Inc.),
 the Gaussian(R) 94 system (copyright 1995, Gaussian, Inc.),
 the Gaussian 92(TM) system (copyright 1992, Gaussian, Inc.),
 the Gaussian 90(TM) system (copyright 1990, Gaussian, Inc.),
 the Gaussian 88(TM) system (copyright 1988, Gaussian, Inc.),
 the Gaussian 86(TM) system (copyright 1986, Carnegie Mellon
 University), and the Gaussian 82(TM) system (copyright 1983,
 Carnegie Mellon University). Gaussian is a federally registered
 trademark of Gaussian, Inc.
  
 This software contains proprietary and confidential information,
 including trade secrets, belonging to Gaussian, Inc.
  
 This software is provided under written license and may be
 used, copied, transmitted, or stored only in accord with that
 written license.
  
 The following legend is applicable only to US Government
 contracts under FAR:
  
                    RESTRICTED RIGHTS LEGEND
  
 Use, reproduction and disclosure by the US Government is
 subject to restrictions as set forth in subparagraphs (a)
 and (c) of the Commercial Computer Software - Restricted
 Rights clause in FAR 52.227-19.
  
 Gaussian, Inc.
 340 Quinnipiac St., Bldg. 40, Wallingford CT 06492
  
  
 ---------------------------------------------------------------
 Warning -- This program may not be used in any manner that
 competes with the business of Gaussian, Inc. or will provide
 assistance to any competitor of Gaussian, Inc.  The licensee
 of this program is prohibited from giving any competitor of
 Gaussian, Inc. access to this program.  By using this program,
 the user acknowledges that Gaussian, Inc. is engaged in the
 business of creating and licensing software in the field of
 computational chemistry and represents and warrants to the
 licensee that it is not a competitor of Gaussian, Inc. and that
 it will not use this program in any manner prohibited above.
 ---------------------------------------------------------------
  

 Cite this work as:
 Gaussian 16, Revision A.03,
 M. J. Frisch, G. W. Trucks, H. B. Schlegel, G. E. Scuseria, 
 M. A. Robb, J. R. Cheeseman, G. Scalmani, V. Barone, 
 G. A. Petersson, H. Nakatsuji, X. Li, M. Caricato, A. V. Marenich, 
 J. Bloino, B. G. Janesko, R. Gomperts, B. Mennucci, H. P. Hratchian, 
 J. V. Ortiz, A. F. Izmaylov, J. L. Sonnenberg, D. Williams-Young, 
 F. Ding, F. Lipparini, F. Egidi, J. Goings, B. Peng, A. Petrone, 
 T. Henderson, D. Ranasinghe, V. G. Zakrzewski, J. Gao, N. Rega, 
 G. Zheng, W. Liang, M. Hada, M. Ehara, K. Toyota, R. Fukuda, 
 J. Hasegawa, M. Ishida, T. Nakajima, Y. Honda, O. Kitao, H. Nakai, 
 T. Vreven, K. Throssell, J. A. Montgomery, Jr., J. E. Peralta, 
 F. Ogliaro, M. J. Bearpark, J. J. Heyd, E. N. Brothers, K. N. Kudin, 
 V. N. Staroverov, T. A. Keith, R. Kobayashi, J. Normand, 
 K. Raghavachari, A. P. Rendell, J. C. Burant, S. S. Iyengar, 
 J. Tomasi, M. Cossi, J. M. Millam, M. Klene, C. Adamo, R. Cammi, 
 J. W. Ochterski, R. L. Martin, K. Morokuma, O. Farkas, 
 J. B. Foresman, and D. J. Fox, Gaussian, Inc., Wallingford CT, 2016.
 
 ******************************************
 Gaussian 16:  ES64L-G16RevA.03 25-Dec-2016
                18-May-2020 
 ******************************************
 %nproc=4
 Will use up to    4 processors via shared memory.
 ----------------------------------------------------------------------
 # nonstd 1/29=20000,38=1,163=2,172=1/1,14; 2/12=2,15=1,17=6,18=5,29=3,
 40=1/2; 3/5=1,6=6,7=1,11=1,25=1,30=1,116=1/1,2,3; 4//1; 5/5=2,38=5/2; 
 6/7=2,8=2,9=2,10=2,28=1,40=12,113=1,114=1,124=2103/1,12(1); 99//99; 5/
 5=2,7=1,13=1,38=1,48=100000/2; 6/7=2,8=2,9=2,10=2,28=1,40=3,113=1,114=
 1,124=2103/12(-1); 1//14(2); 2/15=1,29=3/2; 99//99; 2/15=1,29=3/2; 3/5
 =1,6=6,7=1,11=1,25=1,30=1,116=1/1,2,3; 4/5=5,16=3,69=1/1; 5/5=2,38=5/2
 ; 6/7=2,8=2,9=2,10=2,28=1,40=12,113=1,114=1,124=2103/1,12(1); 99/9=1/9
 9; 5/5=2,7=1,13=1,38=1,48=100000/2; 6/7=2,8=2,9=2,10=2,28=1,40=3,113=1
 ,114=1,124=2103/12(-1); 1//14(-7); 2/15=1,29=3/2; 6/7=2,8=2,9=2,10=2,1
 9=2,28=1,40=12,113=1,114=1,124=2103/1,12; 99/9=1/99;
 ----------------------------------------------------------------------
 1/29=20000,38=1,163=2,172=1/1,14;
 2/12=2,15=1,17=6,18=5,29=3,40=1/2;
 3/5=1,6=6,7=1,11=1,25=1,30=1,116=1/1,2,3;
 4//1;
 5/5=2,38=5/2;
 6/7=2,8=2,9=2,10=2,28=1,40=12,113=1,114=1,124=2103/1,12(1);
 99//99;
 5/5=2,7=1,13=1,38=1,48=100000/2;
 6/7=2,8=2,9=2,10=2,28=1,40=3,113=1,114=1,124=2103/12(-1);
 1//14(2);
 2/15=1,29=3/2;
 99//99;
 2/15=1,29=3/2;
 3/5=1,6=6,7=1,11=1,25=1,30=1,116=1/1,2,3;
 4/5=5,16=3,69=1/1;
 5/5=2,38=5/2;
 6/7=2,8=2,9=2,10=2,28=1,40=12,113=1,114=1,124=2103/1,12(1);
 99/9=1/99;
 5/5=2,7=1,13=1,38=1,48=100000/2;
 6/7=2,8=2,9=2,10=2,28=1,40=3,113=1,114=1,124=2103/12(-1);
 1//14(-7);
 2/15=1,29=3/2;
 6/7=2,8=2,9=2,10=2,19=2,28=1,40=12,113=1,114=1,124=2103/1,12;
 99/9=1/99;
 --------------------------------------------------------------------
 RHF/6-31G* geometry optimization of cis-1,2-difluoroethene (no CF*s)
 --------------------------------------------------------------------
 Symbolic Z-matrix:
 Charge =  0 Multiplicity = 1
 C
 C                    1    CC
 F                    1    CF       2    CCF
 F                    2    CF       1    CCF      3     0.       0
 H                    1    CH       2    CCH      3     180.     0
 H                    2    CH       1    CCH      4     180.     0
       Variables:
  CC                    1.34                     
  CF                    1.33                     
  CH                    1.08                     
  CCF                 120.                       
  CCH                 120.                       
 

 NEF-NEF-NEF-NEF-NEF-NEF-NEF-NEF-NEF-NEF-NEF-NEF-NEF-NEF-NEF-NEF-NEF-NEF-
 NUMERICAL EIGENVECTOR FOLLOWING MINIMUM SEARCH
 INITIALIZATION PASS
                       ----------------------------
                       !    Initial Parameters    !
                       ! (Angstroms and Degrees)  !
 ----------------------                            ----------------------
 !      Name          Value   Derivative information (Atomic Units)     !
 ------------------------------------------------------------------------
 !       CC          1.34     estimate D2E/DX2                          !
 !       CF          1.33     estimate D2E/DX2                          !
 !       CH          1.08     estimate D2E/DX2                          !
 !       CCF       120.0      estimate D2E/DX2                          !
 !       CCH       120.0      estimate D2E/DX2                          !
 ------------------------------------------------------------------------


 ***************************************************
 ** O P T I M I Z A T I O N   P A R A M E T E R S **
 **  MAXIMUM NO. OF ITERATIONS      :          25 **
 **  MAXIMUM ALLOWED STEP LENGTH    :    0.300000 **
 ***************************************************



 NEF-NEF-NEF-NEF-NEF-NEF-NEF-NEF-NEF-NEF-NEF-NEF-NEF-NEF-NEF-NEF-NEF-NEF-
 ---------------------------------------------------------------------------------------------------
                            Z-MATRIX (ANGSTROMS AND DEGREES)
   CD    Cent   Atom    N1       Length/X        N2       Alpha/Y        N3        Beta/Z          J
 ---------------------------------------------------------------------------------------------------
      1      1  C 
      2      2  C        1   1.340000(     1)
      3      3  F        1   1.330000(     2)      2  120.000(     6)
      4      4  F        2   1.330000(     3)      1  120.000(     7)      3    0.000(    10)      0
      5      5  H        1   1.080000(     4)      2  120.000(     8)      3  180.000(    11)      0
      6      6  H        2   1.080000(     5)      1  120.000(     9)      4  180.000(    12)      0
 ---------------------------------------------------------------------------------------------------
                         Z-Matrix orientation:                         
 ---------------------------------------------------------------------
 Center     Atomic      Atomic             Coordinates (Angstroms)
 Number     Number       Type             X           Y           Z
 ---------------------------------------------------------------------
      1          6           0        0.000000    0.000000    0.000000
      2          6           0        0.000000    0.000000    1.340000
      3          9           0        1.151814    0.000000   -0.665000
      4          9           0        1.151814    0.000000    2.005000
      5          1           0       -0.935307   -0.000000   -0.540000
      6          1           0       -0.935307    0.000000    1.880000
 ---------------------------------------------------------------------
                    Distance matrix (angstroms):
                    1          2          3          4          5
     1  C    0.000000
     2  C    1.340000   0.000000
     3  F    1.330000   2.312293   0.000000
     4  F    2.312293   1.330000   2.670000   0.000000
     5  H    1.080000   2.099810   2.090861   3.291367   0.000000
     6  H    2.099810   1.080000   3.291367   2.090861   2.420000
                    6
     6  H    0.000000
 Symmetry turned off by external request.
 Stoichiometry    C2H2F2
 Framework group  C2V[SGV(C2H2F2)]
 Deg. of freedom     5
 Full point group                 C2V     NOp   4
 Rotational constants (GHZ):          20.4005434           6.2052658           4.7580133
 Standard basis: 6-31G(d) (6D, 7F)
    64 basis functions,   120 primitive gaussians,    64 cartesian basis functions
    16 alpha electrons       16 beta electrons
       nuclear repulsion energy       114.5295696934 Hartrees.
 NAtoms=    6 NActive=    6 NUniq=    6 SFac= 1.00D+00 NAtFMM=   60 NAOKFM=F Big=F
 Integral buffers will be    131072 words long.
 Raffenetti 1 integral format.
 Two-electron integral symmetry is turned off.
 One-electron integrals computed using PRISM.
 NBasis=    64 RedAO= T EigKep=  2.91D-03  NBF=    64
 NBsUse=    64 1.00D-06 EigRej= -1.00D+00 NBFU=    64
 ExpMin= 1.61D-01 ExpMax= 7.00D+03 ExpMxC= 1.05D+03 IAcc=3 IRadAn=         5 AccDes= 0.00D+00
 Harris functional with IExCor=  205 and IRadAn=       5 diagonalized for initial guess.
 HarFok:  IExCor=  205 AccDes= 0.00D+00 IRadAn=         5 IDoV= 1 UseB2=F ITyADJ=14
 ICtDFT=  3500011 ScaDFX=  1.000000  1.000000  1.000000  1.000000
 FoFCou: FMM=F IPFlag=           0 FMFlag=      100000 FMFlg1=           0
         NFxFlg=           0 DoJE=T BraDBF=F KetDBF=T FulRan=T
         wScrn=  0.000000 ICntrl=       500 IOpCl=  0 I1Cent=   200000004 NGrid=           0
         NMat0=    1 NMatS0=      1 NMatT0=    0 NMatD0=    1 NMtDS0=    0 NMtDT0=    0
 Symmetry not used in FoFCou.
 Keep R1 ints in memory in canonical form, NReq=3006540.
 Requested convergence on RMS density matrix=1.00D-08 within 128 cycles.
 Requested convergence on MAX density matrix=1.00D-06.
 Requested convergence on             energy=1.00D-06.
 No special actions if energy rises.
 SCF Done:  E(RHF) =  -275.717263937     A.U. after   11 cycles
            NFock= 11  Conv=0.30D-08     -V/T= 2.0022

 **********************************************************************

            Population analysis using the SCF density.

 **********************************************************************

 Alpha  occ. eigenvalues --  -26.31723 -26.31723 -11.33203 -11.33043  -1.63779
 Alpha  occ. eigenvalues --   -1.62240  -1.05495  -0.84857  -0.77091  -0.74355
 Alpha  occ. eigenvalues --   -0.70520  -0.68979  -0.67756  -0.61544  -0.56333
 Alpha  occ. eigenvalues --   -0.37324
 Alpha virt. eigenvalues --    0.18274   0.25899   0.27999   0.29101   0.44759
 Alpha virt. eigenvalues --    0.59701   0.70400   0.72528   0.75544   0.82994
 Alpha virt. eigenvalues --    0.84807   0.87147   1.03273   1.08432   1.20667
 Alpha virt. eigenvalues --    1.25597   1.35483   1.48452   1.54289   1.58403
 Alpha virt. eigenvalues --    1.62830   1.64442   1.71719   1.72169   1.85115
 Alpha virt. eigenvalues --    1.88958   2.03862   2.08673   2.10616   2.10881
 Alpha virt. eigenvalues --    2.17004   2.18768   2.22532   2.38997   2.41817
 Alpha virt. eigenvalues --    2.59996   2.60461   2.67525   2.79298   2.96667
 Alpha virt. eigenvalues --    3.01461   3.32204   3.35885   3.55522   4.37461
 Alpha virt. eigenvalues --    4.52360   4.71807   5.31079
          Condensed to atoms (all electrons):
               1          2          3          4          5          6
     1  C    4.701966   0.616414   0.248341  -0.038603   0.379336  -0.055640
     2  C    0.616414   4.701966  -0.038603   0.248341  -0.055640   0.379336
     3  F    0.248341  -0.038603   9.166345   0.000676  -0.025377   0.001522
     4  F   -0.038603   0.248341   0.000676   9.166345   0.001522  -0.025377
     5  H    0.379336  -0.055640  -0.025377   0.001522   0.490458   0.004985
     6  H   -0.055640   0.379336   0.001522  -0.025377   0.004985   0.490458
 Mulliken charges:
               1
     1  C    0.148187
     2  C    0.148187
     3  F   -0.352903
     4  F   -0.352903
     5  H    0.204716
     6  H    0.204716
 Sum of Mulliken charges =  -0.00000
 Mulliken charges with hydrogens summed into heavy atoms:
               1
     1  C    0.352903
     2  C    0.352903
     3  F   -0.352903
     4  F   -0.352903
 Electronic spatial extent (au):  <R**2>=            336.5138
 Charge=             -0.0000 electrons
 Dipole moment (field-independent basis, Debye):
    X=             -2.8096    Y=              0.0000    Z=             -0.0000  Tot=              2.8096
 Quadrupole moment (field-independent basis, Debye-Ang):
   XX=            -22.4174   YY=            -22.1417   ZZ=            -21.9358
   XY=              0.0000   XZ=             -1.8825   YZ=              0.0000
 Traceless Quadrupole moment (field-independent basis, Debye-Ang):
   XX=             -0.2524   YY=              0.0232   ZZ=              0.2292
   XY=              0.0000   XZ=             -1.8825   YZ=              0.0000
 Octapole moment (field-independent basis, Debye-Ang**2):
  XXX=            -32.4831  YYY=              0.0000  ZZZ=            -44.0910  XYY=             -9.0122
  XXY=              0.0000  XXZ=            -15.0196  XZZ=            -16.6629  YZZ=              0.0000
  YYZ=            -14.8350  XYZ=              0.0000
 Hexadecapole moment (field-independent basis, Debye-Ang**3):
 XXXX=            -97.6092 YYYY=            -18.4766 ZZZZ=           -217.9438 XXXY=              0.0000
 XXXZ=            -21.7637 YYYX=              0.0000 YYYZ=              0.0000 ZZZX=            -31.8024
 ZZZY=              0.0000 XXYY=            -19.3950 XXZZ=            -54.5457 YYZZ=            -38.9540
 XXYZ=              0.0000 YYXZ=             -6.0382 ZZXY=              0.0000
 N-N= 1.145295696934D+02 E-N=-8.844001828907D+02  KE= 2.751058018449D+02
 Running external command "gaunbo6 R"
         input file       "/scr/ericg/tutdel/Gau-13647.EIn"
         output file      "/scr/ericg/tutdel/Gau-13647.EOu"
         message file     "/scr/ericg/tutdel/Gau-13647.EMs"
         fchk file        "/scr/ericg/tutdel/Gau-13647.EFC"
         mat. el file     "/scr/ericg/tutdel/Gau-13647.EUF"

 Writing WrtUnf unformatted file "/scr/ericg/tutdel/Gau-13647.EUF"
 Gaussian matrix elements                                         Version   2 NLab=11 Len12L=8 Len4L=8
 Write SHELL TO ATOM MAP                   from file     0 offset           0 length                  20 to matrix element file.
 Write SHELL TYPES                         from file     0 offset           0 length                  20 to matrix element file.
 Write NUMBER OF PRIMITIVES PER SHELL      from file     0 offset           0 length                  20 to matrix element file.
 Write PRIMITIVE EXPONENTS                 from file     0 offset           0 length                  52 to matrix element file.
 Write CONTRACTION COEFFICIENTS            from file     0 offset           0 length                  52 to matrix element file.
 Write P(S=P) CONTRACTION COEFFICIENTS     from file     0 offset           0 length                  52 to matrix element file.
 Write COORDINATES OF EACH SHELL           from file     0 offset           0 length                  60 to matrix element file.
 Write BONDS PER ATOM                      from file     0 offset           0 length                   6 to matrix element file.
 Write BONDED ATOMS                        from file     0 offset           0 length                  10 to matrix element file.
 Write BOND TYPES                          from file     0 offset           0 length                  10 to matrix element file.
 Write GAUSSIAN SCALARS                    from file   501 offset           0 to matrix element file.
 Write INTEGER ISO                         from file     0 offset           0 length                   6 to matrix element file.
 Write INTEGER SPIN                        from file     0 offset           0 length                   6 to matrix element file.
 Write REAL ZEFFECTIVE                     from file     0 offset           0 length                   6 to matrix element file.
 Write REAL GFACTOR                        from file     0 offset           0 length                   6 to matrix element file.
 Write REAL ZNUCLEAR                       from file     0 offset           0 length                   6 to matrix element file.
 Write NUCLEAR GRADIENT                    from file 10584 offset           0 length                  18 to matrix element file.
 Array NUCLEAR FORCE CONSTANTS              on  file 10585 does not exist.
 Write ELECTRIC DIPOLE MOMENT              from file     0 offset           0 length                   3 to matrix element file.
 Write OVERLAP                             from file   514 offset           0 length                2080 to matrix element file.
 Write CORE HAMILTONIAN ALPHA              from file   515 offset           0 length                2080 to matrix element file.
 Write CORE HAMILTONIAN BETA               from file   515 offset        2080 length                2080 to matrix element file.
 Write KINETIC ENERGY                      from file   516 offset           0 length                2080 to matrix element file.
 Write ORTHOGONAL BASIS                    from file   685 offset           0 length                4096 to matrix element file.
 Write DIPOLE INTEGRALS                    from file   518 offset           0 length                6240 to matrix element file.
 Array DIP VEL INTEGRALS                    on  file   572 does not exist.
 Array R X DEL INTEGRALS                    on  file   572 does not exist.
 Write ALPHA ORBITAL ENERGIES              from file     0 offset           0 length                  64 to matrix element file.
 Write ALPHA MO COEFFICIENTS               from file 10524 offset           0 length                4096 to matrix element file.
 Write ALPHA DENSITY MATRIX                from file     0 offset           0 length                2080 to matrix element file.
 Write ALPHA SCF DENSITY MATRIX            from file 10528 offset           0 length                2080 to matrix element file.
 Write ALPHA FOCK MATRIX                   from file 10536 offset           0 length                2080 to matrix element file.
 No 2e integrals to process.
 Perform NBO analysis...executing G16NBO...

 *********************************** NBO 7.0 ***********************************
             N A T U R A L   A T O M I C   O R B I T A L   A N D
          N A T U R A L   B O N D   O R B I T A L   A N A L Y S I S
 ************************ development version (D000000) ************************
  (c) Copyright 1996-2020 Board of Regents of the University of Wisconsin System
      on behalf of the Theoretical Chemistry Institute.  All rights reserved.

          Cite this program [NBO 7.0.9 (21-May-2020)] as:

          NBO 7.0.  E. D. Glendening, J. K. Badenhoop, A. E. Reed,
          J. E. Carpenter, J. A. Bohmann, C. M. Morales, P. Karafiloglou,
          C. R. Landis, and F. Weinhold, Theoretical Chemistry Institute,
          University of Wisconsin, Madison, WI (2018)

 Filename set to /scr/ericg/tutdel/Gau-13647

 Job title: RHF/6-31G* geometry optimization of cis-1,2-difluoroethene (no CF*s


 NATURAL POPULATIONS:  Natural atomic orbital occupancies

  NAO Atom No lang   Type(AO)    Occupancy      Energy
 -------------------------------------------------------
   1    C  1  s      Cor( 1s)     1.99999     -11.33119
   2    C  1  s      Val( 2s)     0.96163      -0.18526
   3    C  1  s      Ryd( 3s)     0.00235       1.33286
   4    C  1  s      Ryd( 4s)     0.00016       4.17217
   5    C  1  px     Val( 2p)     0.79922       0.05481
   6    C  1  px     Ryd( 3p)     0.00675       1.08724
   7    C  1  py     Val( 2p)     1.04226      -0.11083
   8    C  1  py     Ryd( 3p)     0.00304       0.76298
   9    C  1  pz     Val( 2p)     0.97460      -0.00053
  10    C  1  pz     Ryd( 3p)     0.00598       0.81389
  11    C  1  dxy    Ryd( 3d)     0.00094       2.10278
  12    C  1  dxz    Ryd( 3d)     0.00292       2.61010
  13    C  1  dyz    Ryd( 3d)     0.00300       2.19180
  14    C  1  dx2y2  Ryd( 3d)     0.00214       2.40992
  15    C  1  dz2    Ryd( 3d)     0.00245       2.68840

  16    C  2  s      Cor( 1s)     1.99999     -11.33119
  17    C  2  s      Val( 2s)     0.96163      -0.18526
  18    C  2  s      Ryd( 3s)     0.00235       1.33286
  19    C  2  s      Ryd( 4s)     0.00016       4.17217
  20    C  2  px     Val( 2p)     0.79922       0.05481
  21    C  2  px     Ryd( 3p)     0.00675       1.08724
  22    C  2  py     Val( 2p)     1.04226      -0.11083
  23    C  2  py     Ryd( 3p)     0.00304       0.76298
  24    C  2  pz     Val( 2p)     0.97460      -0.00053
  25    C  2  pz     Ryd( 3p)     0.00598       0.81389
  26    C  2  dxy    Ryd( 3d)     0.00094       2.10278
  27    C  2  dxz    Ryd( 3d)     0.00292       2.61010
  28    C  2  dyz    Ryd( 3d)     0.00300       2.19180
  29    C  2  dx2y2  Ryd( 3d)     0.00214       2.40992
  30    C  2  dz2    Ryd( 3d)     0.00245       2.68840

  31    F  3  s      Cor( 1s)     2.00000     -26.31694
  32    F  3  s      Val( 2s)     1.82833      -1.37876
  33    F  3  s      Ryd( 3s)     0.00021       2.62643
  34    F  3  s      Ryd( 4s)     0.00002       3.89594
  35    F  3  px     Val( 2p)     1.70937      -0.56544
  36    F  3  px     Ryd( 3p)     0.00045       1.96063
  37    F  3  py     Val( 2p)     1.94725      -0.63744
  38    F  3  py     Ryd( 3p)     0.00164       1.59130
  39    F  3  pz     Val( 2p)     1.89125      -0.61993
  40    F  3  pz     Ryd( 3p)     0.00118       1.86952
  41    F  3  dxy    Ryd( 3d)     0.00145       2.29366
  42    F  3  dxz    Ryd( 3d)     0.00247       2.65586
  43    F  3  dyz    Ryd( 3d)     0.00043       2.18324
  44    F  3  dx2y2  Ryd( 3d)     0.00187       2.53273
  45    F  3  dz2    Ryd( 3d)     0.00102       2.30048

  46    F  4  s      Cor( 1s)     2.00000     -26.31694
  47    F  4  s      Val( 2s)     1.82833      -1.37876
  48    F  4  s      Ryd( 3s)     0.00021       2.62643
  49    F  4  s      Ryd( 4s)     0.00002       3.89594
  50    F  4  px     Val( 2p)     1.70937      -0.56544
  51    F  4  px     Ryd( 3p)     0.00045       1.96063
  52    F  4  py     Val( 2p)     1.94725      -0.63744
  53    F  4  py     Ryd( 3p)     0.00164       1.59130
  54    F  4  pz     Val( 2p)     1.89125      -0.61993
  55    F  4  pz     Ryd( 3p)     0.00118       1.86952
  56    F  4  dxy    Ryd( 3d)     0.00145       2.29366
  57    F  4  dxz    Ryd( 3d)     0.00247       2.65586
  58    F  4  dyz    Ryd( 3d)     0.00043       2.18324
  59    F  4  dx2y2  Ryd( 3d)     0.00187       2.53273
  60    F  4  dz2    Ryd( 3d)     0.00102       2.30048

  61    H  5  s      Val( 1s)     0.80511       0.13597
  62    H  5  s      Ryd( 2s)     0.00053       0.74310

  63    H  6  s      Val( 1s)     0.80511       0.13597
  64    H  6  s      Ryd( 2s)     0.00053       0.74310


 Summary of Natural Population Analysis:

                                     Natural Population
             Natural    ---------------------------------------------
  Atom No    Charge        Core      Valence    Rydberg      Total
 --------------------------------------------------------------------
    C  1    0.19257      1.99999     3.77772    0.02972     5.80743
    C  2    0.19257      1.99999     3.77772    0.02972     5.80743
    F  3   -0.38692      2.00000     7.37619    0.01074     9.38692
    F  4   -0.38692      2.00000     7.37619    0.01074     9.38692
    H  5    0.19436      0.00000     0.80511    0.00053     0.80564
    H  6    0.19436      0.00000     0.80511    0.00053     0.80564
 ====================================================================
 * Total *  0.00000      7.99999    23.91802    0.08199    32.00000

                                 Natural Population
 ---------------------------------------------------------
   Core                       7.99999 ( 99.9998% of    8)
   Valence                   23.91802 ( 99.6584% of   24)
   Natural Minimal Basis     31.91801 ( 99.7438% of   32)
   Natural Rydberg Basis      0.08199 (  0.2562% of   32)
 ---------------------------------------------------------

    Atom No         Natural Electron Configuration
 ----------------------------------------------------------------------------
      C  1      [core]2s( 0.96)2p( 2.82)3p( 0.02)3d( 0.01)
      C  2      [core]2s( 0.96)2p( 2.82)3p( 0.02)3d( 0.01)
      F  3      [core]2s( 1.83)2p( 5.55)3d( 0.01)
      F  4      [core]2s( 1.83)2p( 5.55)3d( 0.01)
      H  5            1s( 0.81)
      H  6            1s( 0.81)


 NATURAL BOND ORBITAL ANALYSIS:
 Parsing $CHOOSE keylist

                            Occupancies       Lewis Structure    Low   High
         Max    Occ     -------------------  -----------------   occ   occ
  Cycle  Ctr   Thresh    Lewis   non-Lewis     CR  BD  nC  LP    (L)   (NL)
 ============================================================================
    1     2     1.50    31.79222   0.20778      4   6   0   6     0      0
 ----------------------------------------------------------------------------

 Structure accepted: NBOs selected via $CHOOSE keylist

 -------------------------------------------------------
   Core                      7.99999 (100.000% of   8)
   Valence Lewis            23.79223 ( 99.134% of  24)
  ==================      =============================
   Total Lewis              31.79222 ( 99.351% of  32)
  -----------------------------------------------------
   Valence non-Lewis         0.17217 (  0.538% of  32)
   Rydberg non-Lewis         0.03561 (  0.111% of  32)
  ==================      =============================
   Total non-Lewis           0.20778 (  0.649% of  32)
 -------------------------------------------------------


     (Occupancy)   Bond orbital / Coefficients / Hybrids
 ------------------ Lewis ------------------------------------------------------
   1. (1.99999) CR ( 1) C  1            s(100.00%)
                                         1.0000  0.0000  0.0000  0.0000  0.0000
                                         0.0000  0.0000  0.0000  0.0000  0.0000
                                         0.0000  0.0000  0.0000  0.0000  0.0000
   2. (1.99999) CR ( 1) C  2            s(100.00%)
                                         1.0000  0.0000  0.0000  0.0000  0.0000
                                         0.0000  0.0000  0.0000  0.0000  0.0000
                                         0.0000  0.0000  0.0000  0.0000  0.0000
   3. (2.00000) CR ( 1) F  3            s(100.00%)
                                         1.0000  0.0000  0.0000  0.0000  0.0000
                                         0.0000  0.0000  0.0000  0.0000  0.0000
                                         0.0000  0.0000  0.0000  0.0000  0.0000
   4. (2.00000) CR ( 1) F  4            s(100.00%)
                                         1.0000  0.0000  0.0000  0.0000  0.0000
                                         0.0000  0.0000  0.0000  0.0000  0.0000
                                         0.0000  0.0000  0.0000  0.0000  0.0000
   5. (1.99239) LP ( 1) F  3            s( 68.72%)p 0.45( 31.25%)d 0.00(  0.02%)
                                         0.0000  0.8290  0.0040  0.0000  0.4923
                                        -0.0042  0.0000  0.0000 -0.2648  0.0018
                                         0.0000  0.0110  0.0000 -0.0101  0.0027
   6. (1.97325) LP ( 2) F  3            s(  0.00%)p 1.00( 99.91%)d 0.00(  0.09%)
                                         0.0000  0.0056 -0.0027 -0.0005 -0.4807
                                         0.0005  0.0000  0.0000 -0.8764 -0.0001
                                         0.0000  0.0153  0.0000  0.0128 -0.0216
   7. (1.94905) LP ( 3) F  3            s(  0.00%)p 1.00( 99.91%)d 0.00(  0.09%)
                                         0.0000  0.0000  0.0000  0.0000  0.0000
                                         0.0000  0.9995  0.0010  0.0000  0.0000
                                        -0.0269  0.0000  0.0142  0.0000  0.0000
   8. (1.99239) LP ( 1) F  4            s( 68.72%)p 0.45( 31.25%)d 0.00(  0.02%)
                                         0.0000  0.8290  0.0040  0.0000  0.4923
                                        -0.0042  0.0000  0.0000  0.2648 -0.0018
                                         0.0000 -0.0110  0.0000 -0.0101  0.0027
   9. (1.97325) LP ( 2) F  4            s(  0.00%)p 1.00( 99.91%)d 0.00(  0.09%)
                                         0.0000  0.0056 -0.0027 -0.0005 -0.4807
                                         0.0005  0.0000  0.0000  0.8764  0.0001
                                         0.0000 -0.0153  0.0000  0.0128 -0.0216
  10. (1.94905) LP ( 3) F  4            s(  0.00%)p 1.00( 99.91%)d 0.00(  0.09%)
                                         0.0000  0.0000  0.0000  0.0000  0.0000
                                         0.0000  0.9995  0.0010  0.0000  0.0000
                                        -0.0269  0.0000 -0.0142  0.0000  0.0000
  11. (1.99766) BD ( 1) C  1- C  2
               ( 50.00%)   0.7071* C  1 s( 41.03%)p 1.43( 58.80%)d 0.00(  0.17%)
                                         0.0000  0.6404 -0.0129 -0.0039  0.0450
                                         0.0012  0.0000  0.0000  0.7645  0.0399
                                         0.0000  0.0073  0.0000 -0.0061  0.0397
               ( 50.00%)   0.7071* C  2 s( 41.03%)p 1.43( 58.80%)d 0.00(  0.17%)
                                         0.0000  0.6404 -0.0129 -0.0039  0.0450
                                         0.0012  0.0000  0.0000 -0.7645 -0.0399
                                         0.0000 -0.0073  0.0000 -0.0061  0.0397
  12. (1.99676) BD ( 2) C  1- C  2
               ( 50.00%)   0.7071* C  1 s(  0.00%)p 1.00( 99.75%)d 0.00(  0.25%)
                                         0.0000  0.0000  0.0000  0.0000  0.0000
                                         0.0000  0.9975 -0.0510  0.0000  0.0000
                                        -0.0060  0.0000  0.0492  0.0000  0.0000
               ( 50.00%)   0.7071* C  2 s(  0.00%)p 1.00( 99.75%)d 0.00(  0.25%)
                                         0.0000  0.0000  0.0000  0.0000  0.0000
                                         0.0000  0.9975 -0.0510  0.0000  0.0000
                                        -0.0060  0.0000 -0.0492  0.0000  0.0000
  13. (1.99676) BD ( 1) C  1- F  3
               ( 26.57%)   0.5154* C  1 s( 23.46%)p 3.24( 76.11%)d 0.02(  0.43%)
                                         0.0000  0.4831 -0.0321  0.0108  0.7473
                                         0.0477  0.0000  0.0000 -0.4454 -0.0448
                                         0.0000 -0.0510  0.0000  0.0396 -0.0125
               ( 73.43%)   0.8569* F  3 s( 31.26%)p 2.19( 68.53%)d 0.01(  0.21%)
                                         0.0000  0.5591 -0.0079 -0.0001 -0.7243
                                        -0.0014  0.0000  0.0000  0.4008  0.0031
                                         0.0000 -0.0345  0.0000  0.0299 -0.0065
  14. (1.98745) BD ( 1) C  1- H  5
               ( 60.02%)   0.7747* C  1 s( 35.47%)p 1.81( 64.36%)d 0.00(  0.17%)
                                         0.0000  0.5951  0.0252  0.0000 -0.6580
                                         0.0136  0.0000  0.0000 -0.4586 -0.0122
                                         0.0000  0.0312  0.0000  0.0268 -0.0044
               ( 39.98%)   0.6323* H  5 s(100.00%)
                                         1.0000  0.0021
  15. (1.99676) BD ( 1) C  2- F  4
               ( 26.57%)   0.5154* C  2 s( 23.46%)p 3.24( 76.11%)d 0.02(  0.43%)
                                         0.0000  0.4831 -0.0321  0.0108  0.7473
                                         0.0477  0.0000  0.0000  0.4454  0.0448
                                         0.0000  0.0510  0.0000  0.0396 -0.0125
               ( 73.43%)   0.8569* F  4 s( 31.26%)p 2.19( 68.53%)d 0.01(  0.21%)
                                         0.0000  0.5591 -0.0079 -0.0001 -0.7243
                                        -0.0014  0.0000  0.0000 -0.4008 -0.0031
                                         0.0000  0.0345  0.0000  0.0299 -0.0065
  16. (1.98745) BD ( 1) C  2- H  6
               ( 60.02%)   0.7747* C  2 s( 35.47%)p 1.81( 64.36%)d 0.00(  0.17%)
                                         0.0000  0.5951  0.0252  0.0000 -0.6580
                                         0.0136  0.0000  0.0000  0.4586  0.0122
                                         0.0000 -0.0312  0.0000  0.0268 -0.0044
               ( 39.98%)   0.6323* H  6 s(100.00%)
                                         1.0000  0.0021
 ---------------- non-Lewis ----------------------------------------------------
  17. (0.02102) BD*( 1) C  1- C  2
               ( 50.00%)   0.7071* C  1 s( 41.03%)p 1.43( 58.80%)d 0.00(  0.17%)
                                         0.0000  0.6404 -0.0129 -0.0039  0.0450
                                         0.0012  0.0000  0.0000  0.7645  0.0399
                                         0.0000  0.0073  0.0000 -0.0061  0.0397
               ( 50.00%)  -0.7071* C  2 s( 41.03%)p 1.43( 58.80%)d 0.00(  0.17%)
                                         0.0000  0.6404 -0.0129 -0.0039  0.0450
                                         0.0012  0.0000  0.0000 -0.7645 -0.0399
                                         0.0000 -0.0073  0.0000 -0.0061  0.0397
  18. (0.09741) BD*( 2) C  1- C  2
               ( 50.00%)   0.7071* C  1 s(  0.00%)p 1.00( 99.75%)d 0.00(  0.25%)
                                         0.0000  0.0000  0.0000  0.0000  0.0000
                                         0.0000  0.9975 -0.0510  0.0000  0.0000
                                        -0.0060  0.0000  0.0492  0.0000  0.0000
               ( 50.00%)  -0.7071* C  2 s(  0.00%)p 1.00( 99.75%)d 0.00(  0.25%)
                                         0.0000  0.0000  0.0000  0.0000  0.0000
                                         0.0000  0.9975 -0.0510  0.0000  0.0000
                                        -0.0060  0.0000 -0.0492  0.0000  0.0000
  19. (0.00944) BD*( 1) C  1- F  3
               ( 73.43%)   0.8569* C  1 s( 23.46%)p 3.24( 76.11%)d 0.02(  0.43%)
                                         0.0000  0.4831 -0.0321  0.0108  0.7473
                                         0.0477  0.0000  0.0000 -0.4454 -0.0448
                                         0.0000 -0.0510  0.0000  0.0396 -0.0125
               ( 26.57%)  -0.5154* F  3 s( 31.26%)p 2.19( 68.53%)d 0.01(  0.21%)
                                         0.0000  0.5591 -0.0079 -0.0001 -0.7243
                                        -0.0014  0.0000  0.0000  0.4008  0.0031
                                         0.0000 -0.0345  0.0000  0.0299 -0.0065
  20. (0.01743) BD*( 1) C  1- H  5
               ( 39.98%)   0.6323* C  1 s( 35.47%)p 1.81( 64.36%)d 0.00(  0.17%)
                                         0.0000 -0.5951 -0.0252  0.0000  0.6580
                                        -0.0136  0.0000  0.0000  0.4586  0.0122
                                         0.0000 -0.0312  0.0000 -0.0268  0.0044
               ( 60.02%)  -0.7747* H  5 s(100.00%)
                                        -1.0000 -0.0021
  21. (0.00944) BD*( 1) C  2- F  4
               ( 73.43%)   0.8569* C  2 s( 23.46%)p 3.24( 76.11%)d 0.02(  0.43%)
                                         0.0000  0.4831 -0.0321  0.0108  0.7473
                                         0.0477  0.0000  0.0000  0.4454  0.0448
                                         0.0000  0.0510  0.0000  0.0396 -0.0125
               ( 26.57%)  -0.5154* F  4 s( 31.26%)p 2.19( 68.53%)d 0.01(  0.21%)
                                         0.0000  0.5591 -0.0079 -0.0001 -0.7243
                                        -0.0014  0.0000  0.0000 -0.4008 -0.0031
                                         0.0000  0.0345  0.0000  0.0299 -0.0065
  22. (0.01743) BD*( 1) C  2- H  6
               ( 39.98%)   0.6323* C  2 s( 35.47%)p 1.81( 64.36%)d 0.00(  0.17%)
                                         0.0000 -0.5951 -0.0252  0.0000  0.6580
                                        -0.0136  0.0000  0.0000 -0.4586 -0.0122
                                         0.0000  0.0312  0.0000 -0.0268  0.0044
               ( 60.02%)  -0.7747* H  6 s(100.00%)
                                        -1.0000 -0.0021
  23. (0.00590) RY ( 1) C  1            s(  9.95%)p 8.90( 88.53%)d 0.15(  1.52%)
                                         0.0000  0.0330  0.3063  0.0677  0.0455
                                        -0.8418  0.0000  0.0000 -0.0493  0.4149
                                         0.0000 -0.0176  0.0000 -0.1015  0.0679
  24. (0.00424) RY ( 2) C  1            s(  1.36%)p55.80( 76.09%)d16.54( 22.55%)
                                         0.0000  0.0095  0.1047  0.0507 -0.0059
                                        -0.4050  0.0000  0.0000  0.0573 -0.7704
                                         0.0000  0.0461  0.0000  0.2625 -0.3930
  25. (0.00198) RY ( 3) C  1            s(  0.00%)p 1.00(  2.87%)d33.83( 97.13%)
                                         0.0000  0.0000  0.0000  0.0000  0.0000
                                         0.0000 -0.0471 -0.1628  0.0000  0.0000
                                        -0.6926  0.0000  0.7011  0.0000  0.0000
  26. (0.00131) RY ( 4) C  1            s( 17.90%)p 0.71( 12.66%)d 3.88( 69.44%)
                                         0.0000 -0.0014  0.4218 -0.0321  0.0536
                                         0.2141  0.0000  0.0000  0.0074  0.2790
                                         0.0000  0.6789  0.0000  0.2370 -0.4211
  27. (0.00017) RY ( 5) C  1            s(  0.00%)p 1.00( 89.59%)d 0.12( 10.41%)
                                         0.0000  0.0000  0.0000  0.0000  0.0000
                                         0.0000  0.0336  0.9459  0.0000  0.0000
                                         0.0893  0.0000  0.3101  0.0000  0.0000
  28. (0.00015) RY ( 6) C  1            s( 64.06%)p 0.20( 12.62%)d 0.36( 23.32%)
                                         0.0000  0.0064  0.8003  0.0125  0.0157
                                         0.2276  0.0000  0.0000  0.0073 -0.2723
                                         0.0000 -0.1758  0.0000 -0.3798  0.2408
  29. (0.00008) RY ( 7) C  1            s( 54.15%)p 0.06(  3.28%)d 0.79( 42.57%)
  30. (0.00000) RY ( 8) C  1            s(  2.93%)p 0.04(  0.13%)d33.06( 96.94%)
  31. (0.00000) RY ( 9) C  1            s( 49.69%)p 0.15(  7.42%)d 0.86( 42.89%)
  32. (0.00000) RY (10) C  1            s(  0.00%)p 1.00(  7.79%)d11.84( 92.21%)
  33. (0.00590) RY ( 1) C  2            s(  9.95%)p 8.90( 88.53%)d 0.15(  1.52%)
                                         0.0000  0.0330  0.3063  0.0677  0.0455
                                        -0.8418  0.0000  0.0000  0.0493 -0.4149
                                         0.0000  0.0176  0.0000 -0.1015  0.0679
  34. (0.00424) RY ( 2) C  2            s(  1.36%)p55.80( 76.09%)d16.54( 22.55%)
                                         0.0000  0.0095  0.1047  0.0507 -0.0059
                                        -0.4050  0.0000  0.0000 -0.0573  0.7704
                                         0.0000 -0.0461  0.0000  0.2625 -0.3930
  35. (0.00198) RY ( 3) C  2            s(  0.00%)p 1.00(  2.87%)d33.83( 97.13%)
                                         0.0000  0.0000  0.0000  0.0000  0.0000
                                         0.0000  0.0471  0.1628  0.0000  0.0000
                                         0.6926  0.0000  0.7011  0.0000  0.0000
  36. (0.00131) RY ( 4) C  2            s( 17.90%)p 0.71( 12.66%)d 3.88( 69.44%)
                                         0.0000 -0.0014  0.4218 -0.0321  0.0536
                                         0.2141  0.0000  0.0000 -0.0074 -0.2790
                                         0.0000 -0.6789  0.0000  0.2370 -0.4211
  37. (0.00017) RY ( 5) C  2            s(  0.00%)p 1.00( 89.59%)d 0.12( 10.41%)
                                         0.0000  0.0000  0.0000  0.0000  0.0000
                                         0.0000  0.0336  0.9459  0.0000  0.0000
                                         0.0893  0.0000 -0.3101  0.0000  0.0000
  38. (0.00015) RY ( 6) C  2            s( 64.06%)p 0.20( 12.62%)d 0.36( 23.32%)
                                         0.0000  0.0064  0.8003  0.0125  0.0157
                                         0.2276  0.0000  0.0000 -0.0073  0.2723
                                         0.0000  0.1758  0.0000 -0.3798  0.2408
  39. (0.00008) RY ( 7) C  2            s( 54.15%)p 0.06(  3.28%)d 0.79( 42.57%)
  40. (0.00000) RY ( 8) C  2            s(  2.93%)p 0.04(  0.13%)d33.06( 96.94%)
  41. (0.00000) RY ( 9) C  2            s( 49.69%)p 0.15(  7.42%)d 0.86( 42.89%)
  42. (0.00000) RY (10) C  2            s(  0.00%)p 1.00(  7.79%)d11.84( 92.21%)
  43. (0.00171) RY ( 1) F  3            s(  0.00%)p 1.00( 95.80%)d 0.04(  4.20%)
                                         0.0000  0.0000  0.0000  0.0000  0.0000
                                         0.0000  0.0051  0.9788  0.0000  0.0000
                                         0.1507  0.0000 -0.1388  0.0000  0.0000
  44. (0.00159) RY ( 2) F  3            s(  2.68%)p35.96( 96.46%)d 0.32(  0.86%)
                                         0.0000  0.0003  0.1561 -0.0494 -0.0008
                                         0.4905  0.0000  0.0000  0.0027  0.8509
                                         0.0000  0.0832  0.0000  0.0026 -0.0405
  45. (0.00006) RY ( 3) F  3            s( 24.90%)p 2.19( 54.60%)d 0.82( 20.49%)
  46. (0.00004) RY ( 4) F  3            s( 56.14%)p 0.16(  8.94%)d 0.62( 34.92%)
  47. (0.00001) RY ( 5) F  3            s( 28.72%)p 0.01(  0.26%)d 2.47( 71.02%)
  48. (0.00001) RY ( 6) F  3            s(  8.74%)p 0.58(  5.10%)d 9.86( 86.17%)
  49. (0.00000) RY ( 7) F  3            s(  0.00%)p 1.00(  0.82%)d99.99( 99.18%)
  50. (0.00000) RY ( 8) F  3            s( 75.63%)p 0.06(  4.25%)d 0.27( 20.12%)
  51. (0.00000) RY ( 9) F  3            s(  3.20%)p 9.58( 30.70%)d20.64( 66.10%)
  52. (0.00000) RY (10) F  3            s(  0.00%)p 1.00(  3.47%)d27.78( 96.53%)
  53. (0.00171) RY ( 1) F  4            s(  0.00%)p 1.00( 95.80%)d 0.04(  4.20%)
                                         0.0000  0.0000  0.0000  0.0000  0.0000
                                         0.0000  0.0051  0.9788  0.0000  0.0000
                                         0.1507  0.0000  0.1388  0.0000  0.0000
  54. (0.00159) RY ( 2) F  4            s(  2.68%)p35.96( 96.46%)d 0.32(  0.86%)
                                         0.0000  0.0003  0.1561 -0.0494 -0.0008
                                         0.4905  0.0000  0.0000 -0.0027 -0.8509
                                         0.0000 -0.0832  0.0000  0.0026 -0.0405
  55. (0.00006) RY ( 3) F  4            s( 24.90%)p 2.19( 54.60%)d 0.82( 20.49%)
  56. (0.00004) RY ( 4) F  4            s( 56.14%)p 0.16(  8.94%)d 0.62( 34.92%)
  57. (0.00001) RY ( 5) F  4            s( 28.72%)p 0.01(  0.26%)d 2.47( 71.02%)
  58. (0.00001) RY ( 6) F  4            s(  8.74%)p 0.58(  5.10%)d 9.86( 86.17%)
  59. (0.00000) RY ( 7) F  4            s(  0.00%)p 1.00(  0.82%)d99.99( 99.18%)
  60. (0.00000) RY ( 8) F  4            s( 75.63%)p 0.06(  4.25%)d 0.27( 20.12%)
  61. (0.00000) RY ( 9) F  4            s(  3.20%)p 9.58( 30.70%)d20.64( 66.10%)
  62. (0.00000) RY (10) F  4            s(  0.00%)p 1.00(  3.47%)d27.78( 96.53%)
  63. (0.00054) RY ( 1) H  5            s(100.00%)
                                        -0.0021  1.0000
  64. (0.00054) RY ( 1) H  6            s(100.00%)
                                        -0.0021  1.0000


 NHO DIRECTIONALITY AND BOND BENDING (deviation from line of nuclear centers at
                                      the position of maximum hybrid amplitude)

         [Thresholds for printing:  angular deviation  >  1.0 degree]
                                    p- or d-character  > 25.0%
                                    orbital occupancy  >  0.10e

                        Line of Centers        Hybrid 1             Hybrid 2
                        ---------------  -------------------  ------------------
           NBO            Theta   Phi    Theta   Phi    Dev   Theta   Phi    Dev
 ===============================================================================
   5. LP ( 1) F  3          --     --    118.1    0.0   --      --     --    --
   6. LP ( 2) F  3          --     --     28.5    0.0   --      --     --    --
   7. LP ( 3) F  3          --     --     89.9   90.2   --      --     --    --
   8. LP ( 1) F  4          --     --     61.9    0.0   --      --     --    --
   9. LP ( 2) F  4          --     --    151.5    0.0   --      --     --    --
  10. LP ( 3) F  4          --     --     90.1   90.2   --      --     --    --
  11. BD ( 1) C  1- C  2    0.0    0.0     3.2    0.0   3.2   176.8    0.0   3.2
  12. BD ( 2) C  1- C  2    0.0    0.0    88.0  269.6  88.0    92.0  269.6  88.0
  13. BD ( 1) C  1- F  3  120.0    0.0     --     --    --     61.1  180.0   1.1
  14. BD ( 1) C  1- H  5  120.0  180.0   123.4  180.0   3.4     --     --    --
  15. BD ( 1) C  2- F  4   60.0    0.0     --     --    --    118.9  180.0   1.1
  16. BD ( 1) C  2- H  6   60.0  180.0    56.6  180.0   3.4     --     --    --


 SECOND ORDER PERTURBATION THEORY ANALYSIS OF FOCK MATRIX IN NBO BASIS

     Threshold for printing:   0.50 kcal/mol
                                                          E(2) E(NL)-E(L) F(L,NL)
      Donor (L) NBO              Acceptor (NL) NBO      kcal/mol   a.u.    a.u.
 ===============================================================================

 within unit  1
    5. LP ( 1) F  3            17. BD*( 1) C  1- C  2      0.72    2.08   0.035
    5. LP ( 1) F  3            20. BD*( 1) C  1- H  5      1.10    1.91   0.041
    5. LP ( 1) F  3            23. RY ( 1) C  1            5.97    2.19   0.102
    6. LP ( 2) F  3            17. BD*( 1) C  1- C  2      8.37    1.54   0.101
    6. LP ( 2) F  3            20. BD*( 1) C  1- H  5      9.93    1.36   0.104
    6. LP ( 2) F  3            22. BD*( 1) C  2- H  6      0.51    1.36   0.024
    6. LP ( 2) F  3            24. RY ( 2) C  1            1.20    1.97   0.043
    6. LP ( 2) F  3            26. RY ( 4) C  1            1.00    2.86   0.048
    7. LP ( 3) F  3            18. BD*( 2) C  1- C  2     27.50    0.83   0.135
    7. LP ( 3) F  3            25. RY ( 3) C  1            2.65    2.83   0.077
    8. LP ( 1) F  4            17. BD*( 1) C  1- C  2      0.72    2.08   0.035
    8. LP ( 1) F  4            22. BD*( 1) C  2- H  6      1.10    1.91   0.041
    8. LP ( 1) F  4            33. RY ( 1) C  2            5.97    2.19   0.102
    9. LP ( 2) F  4            17. BD*( 1) C  1- C  2      8.37    1.54   0.101
    9. LP ( 2) F  4            20. BD*( 1) C  1- H  5      0.51    1.36   0.024
    9. LP ( 2) F  4            22. BD*( 1) C  2- H  6      9.93    1.36   0.104
    9. LP ( 2) F  4            34. RY ( 2) C  2            1.20    1.97   0.043
    9. LP ( 2) F  4            36. RY ( 4) C  2            1.00    2.86   0.048
   10. LP ( 3) F  4            18. BD*( 2) C  1- C  2     27.50    0.83   0.135
   10. LP ( 3) F  4            35. RY ( 3) C  2            2.65    2.83   0.077
   11. BD ( 1) C  1- C  2      20. BD*( 1) C  1- H  5      0.67    1.64   0.030
   11. BD ( 1) C  1- C  2      22. BD*( 1) C  2- H  6      0.67    1.64   0.030
   11. BD ( 1) C  1- C  2      44. RY ( 2) F  3            0.90    2.71   0.044
   11. BD ( 1) C  1- C  2      54. RY ( 2) F  4            0.90    2.71   0.044
   12. BD ( 2) C  1- C  2      43. RY ( 1) F  3            1.96    2.01   0.056
   12. BD ( 2) C  1- C  2      53. RY ( 1) F  4            1.96    2.01   0.056
   13. BD ( 1) C  1- F  3      22. BD*( 1) C  2- H  6      1.49    1.92   0.048
   13. BD ( 1) C  1- F  3      33. RY ( 1) C  2            0.60    2.20   0.032
   14. BD ( 1) C  1- H  5      21. BD*( 1) C  2- F  4      6.26    1.31   0.081
   14. BD ( 1) C  1- H  5      33. RY ( 1) C  2            1.00    1.74   0.037
   14. BD ( 1) C  1- H  5      34. RY ( 2) C  2            1.76    2.06   0.054
   14. BD ( 1) C  1- H  5      44. RY ( 2) F  3            1.18    2.52   0.049
   15. BD ( 1) C  2- F  4      20. BD*( 1) C  1- H  5      1.49    1.92   0.048
   15. BD ( 1) C  2- F  4      23. RY ( 1) C  1            0.60    2.20   0.032
   16. BD ( 1) C  2- H  6      19. BD*( 1) C  1- F  3      6.26    1.31   0.081
   16. BD ( 1) C  2- H  6      23. RY ( 1) C  1            1.00    1.74   0.037
   16. BD ( 1) C  2- H  6      24. RY ( 2) C  1            1.76    2.06   0.054
   16. BD ( 1) C  2- H  6      54. RY ( 2) F  4            1.18    2.52   0.049


 NATURAL BOND ORBITALS (Summary):

                                                     Principal Delocalizations
           NBO                 Occupancy    Energy   (geminal,vicinal,remote)
 ===============================================================================
 Molecular unit  1  (C2H2F2)
 ------ Lewis --------------------------------------
    1. CR ( 1) C  1             1.99999   -11.33119
    2. CR ( 1) C  2             1.99999   -11.33119
    3. CR ( 1) F  3             2.00000   -26.31694
    4. CR ( 1) F  4             2.00000   -26.31694
    5. LP ( 1) F  3             1.99239    -1.18944  23(v),20(v),17(v)
    6. LP ( 2) F  3             1.97325    -0.64477  20(v),17(v),24(v),26(v)
                                                     22(r)
    7. LP ( 3) F  3             1.94905    -0.63904  18(v),25(v)
    8. LP ( 1) F  4             1.99239    -1.18944  33(v),22(v),17(v)
    9. LP ( 2) F  4             1.97325    -0.64477  22(v),17(v),34(v),36(v)
                                                     20(r)
   10. LP ( 3) F  4             1.94905    -0.63904  18(v),35(v)
   11. BD ( 1) C  1- C  2       1.99766    -0.92265  44(v),54(v),20(g),22(g)
   12. BD ( 2) C  1- C  2       1.99676    -0.42660  43(v),53(v)
   13. BD ( 1) C  1- F  3       1.99676    -1.20096  22(v),33(v)
   14. BD ( 1) C  1- H  5       1.98745    -0.73801  21(v),34(v),44(v),33(v)
   15. BD ( 1) C  2- F  4       1.99676    -1.20096  20(v),23(v)
   16. BD ( 1) C  2- H  6       1.98745    -0.73801  19(v),24(v),54(v),23(v)
 ------ non-Lewis ----------------------------------
   17. BD*( 1) C  1- C  2       0.02102     0.89271
   18. BD*( 2) C  1- C  2       0.09741     0.19444
   19. BD*( 1) C  1- F  3       0.00944     0.57108
   20. BD*( 1) C  1- H  5       0.01743     0.71863
   21. BD*( 1) C  2- F  4       0.00944     0.57108
   22. BD*( 1) C  2- H  6       0.01743     0.71863
   23. RY ( 1) C  1             0.00590     0.99855
   24. RY ( 2) C  1             0.00424     1.32440
   25. RY ( 3) C  1             0.00198     2.18871
   26. RY ( 4) C  1             0.00131     2.21339
   27. RY ( 5) C  1             0.00017     0.88847
   28. RY ( 6) C  1             0.00015     1.55340
   29. RY ( 7) C  1             0.00008     3.12754
   30. RY ( 8) C  1             0.00000     2.54619
   31. RY ( 9) C  1             0.00000     3.29090
   32. RY (10) C  1             0.00000     1.98562
   33. RY ( 1) C  2             0.00590     0.99855
   34. RY ( 2) C  2             0.00424     1.32440
   35. RY ( 3) C  2             0.00198     2.18871
   36. RY ( 4) C  2             0.00131     2.21339
   37. RY ( 5) C  2             0.00017     0.88847
   38. RY ( 6) C  2             0.00015     1.55340
   39. RY ( 7) C  2             0.00008     3.12754
   40. RY ( 8) C  2             0.00000     2.54619
   41. RY ( 9) C  2             0.00000     3.29090
   42. RY (10) C  2             0.00000     1.98562
   43. RY ( 1) F  3             0.00171     1.57943
   44. RY ( 2) F  3             0.00159     1.78295
   45. RY ( 3) F  3             0.00006     2.64687
   46. RY ( 4) F  3             0.00004     2.13635
   47. RY ( 5) F  3             0.00001     2.39563
   48. RY ( 6) F  3             0.00001     2.35300
   49. RY ( 7) F  3             0.00000     2.14133
   50. RY ( 8) F  3             0.00000     4.23044
   51. RY ( 9) F  3             0.00000     2.29722
   52. RY (10) F  3             0.00000     2.34903
   53. RY ( 1) F  4             0.00171     1.57943
   54. RY ( 2) F  4             0.00159     1.78295
   55. RY ( 3) F  4             0.00006     2.64687
   56. RY ( 4) F  4             0.00004     2.13635
   57. RY ( 5) F  4             0.00001     2.39563
   58. RY ( 6) F  4             0.00001     2.35300
   59. RY ( 7) F  4             0.00000     2.14133
   60. RY ( 8) F  4             0.00000     4.23044
   61. RY ( 9) F  4             0.00000     2.29722
   62. RY (10) F  4             0.00000     2.34903
   63. RY ( 1) H  5             0.00054     0.74171
   64. RY ( 1) H  6             0.00054     0.74171
          -------------------------------
                 Total Lewis   31.79222  ( 99.3507%)
           Valence non-Lewis    0.17217  (  0.5380%)
           Rydberg non-Lewis    0.03561  (  0.1113%)
          -------------------------------
               Total unit  1   32.00000  (100.0000%)
              Charge unit  1    0.00000

 $CHOOSE
   LONE 3 3 4 3 END
   BOND D 1 2 S 1 3 S 1 5 S 2 4 S 2 6 END
 $END

 NBO analysis completed in 0.11 CPU seconds (0 wall seconds)
 Maximum scratch memory used by NBO was 331496 words (2.53 MB)
 Maximum scratch memory used by G16NBO was 14722 words (0.11 MB)


 Deletion of the following orbitals from the NBO Fock matrix:
   19  21

 Orbital occupancies:

       Orbital                         No deletions  This deletion    Change
 ------------------------------------------------------------------------------
    1. CR ( 1) C  1                      1.99999        2.00000       0.00000
    2. CR ( 1) C  2                      1.99999        2.00000       0.00000
    3. CR ( 1) F  3                      2.00000        2.00000       0.00000
    4. CR ( 1) F  4                      2.00000        2.00000       0.00000
    5. LP ( 1) F  3                      1.99239        1.99250       0.00011
    6. LP ( 2) F  3                      1.97325        1.97363       0.00038
    7. LP ( 3) F  3                      1.94905        1.94905       0.00000
    8. LP ( 1) F  4                      1.99239        1.99250       0.00011
    9. LP ( 2) F  4                      1.97325        1.97363       0.00038
   10. LP ( 3) F  4                      1.94905        1.94905       0.00000
   11. BD ( 1) C  1- C  2                1.99766        1.99776       0.00010
   12. BD ( 2) C  1- C  2                1.99676        1.99676       0.00000
   13. BD ( 1) C  1- F  3                1.99676        1.99710       0.00034
   14. BD ( 1) C  1- H  5                1.98745        1.99551       0.00806
   15. BD ( 1) C  2- F  4                1.99676        1.99710       0.00034
   16. BD ( 1) C  2- H  6                1.98745        1.99551       0.00806
   17. BD*( 1) C  1- C  2                0.02102        0.02131       0.00029
   18. BD*( 2) C  1- C  2                0.09741        0.09741       0.00000
   19. BD*( 1) C  1- F  3                0.00944        0.00000      -0.00944
   20. BD*( 1) C  1- H  5                0.01743        0.01772       0.00028
   21. BD*( 1) C  2- F  4                0.00944        0.00000      -0.00944
   22. BD*( 1) C  2- H  6                0.01743        0.01772       0.00028
   23. RY ( 1) C  1                      0.00590        0.00650       0.00059
   24. RY ( 2) C  1                      0.00424        0.00383      -0.00041
   25. RY ( 3) C  1                      0.00198        0.00198       0.00000
   26. RY ( 4) C  1                      0.00131        0.00112      -0.00018
   27. RY ( 5) C  1                      0.00017        0.00017       0.00000
   28. RY ( 6) C  1                      0.00015        0.00016       0.00001
   29. RY ( 7) C  1                      0.00008        0.00008       0.00000
   30. RY ( 8) C  1                      0.00000        0.00001       0.00001
   31. RY ( 9) C  1                      0.00000        0.00003       0.00003
   32. RY (10) C  1                      0.00000        0.00000       0.00000
   33. RY ( 1) C  2                      0.00590        0.00650       0.00059
   34. RY ( 2) C  2                      0.00424        0.00383      -0.00041
   35. RY ( 3) C  2                      0.00198        0.00198       0.00000
   36. RY ( 4) C  2                      0.00131        0.00112      -0.00018
   37. RY ( 5) C  2                      0.00017        0.00017       0.00000
   38. RY ( 6) C  2                      0.00015        0.00016       0.00001
   39. RY ( 7) C  2                      0.00008        0.00008       0.00000
   40. RY ( 8) C  2                      0.00000        0.00001       0.00001
   41. RY ( 9) C  2                      0.00000        0.00003       0.00003
   42. RY (10) C  2                      0.00000        0.00000       0.00000
   43. RY ( 1) F  3                      0.00171        0.00171       0.00000
   44. RY ( 2) F  3                      0.00159        0.00158      -0.00001
   45. RY ( 3) F  3                      0.00006        0.00006      -0.00001
   46. RY ( 4) F  3                      0.00004        0.00005       0.00001
   47. RY ( 5) F  3                      0.00001        0.00003       0.00002
   48. RY ( 6) F  3                      0.00001        0.00001       0.00000
   49. RY ( 7) F  3                      0.00000        0.00000       0.00000
   50. RY ( 8) F  3                      0.00000        0.00001       0.00001
   51. RY ( 9) F  3                      0.00000        0.00002       0.00002
   52. RY (10) F  3                      0.00000        0.00000       0.00000
   53. RY ( 1) F  4                      0.00171        0.00171       0.00000
   54. RY ( 2) F  4                      0.00159        0.00158      -0.00001
   55. RY ( 3) F  4                      0.00006        0.00006      -0.00001
   56. RY ( 4) F  4                      0.00004        0.00005       0.00001
   57. RY ( 5) F  4                      0.00001        0.00003       0.00002
   58. RY ( 6) F  4                      0.00001        0.00001       0.00000
   59. RY ( 7) F  4                      0.00000        0.00000       0.00000
   60. RY ( 8) F  4                      0.00000        0.00001       0.00001
   61. RY ( 9) F  4                      0.00000        0.00002       0.00002
   62. RY (10) F  4                      0.00000        0.00000       0.00000
   63. RY ( 1) H  5                      0.00054        0.00055       0.00001
   64. RY ( 1) H  6                      0.00054        0.00055       0.00001

 NEXT STEP:  Perform one SCF cycle to evaluate the energy of the new density
             matrix constructed from the deleted NBO Fock matrix.

 ------------------------------------------------------------------------------
 Opening RunExU unformatted file "/scr/ericg/tutdel/Gau-13647.EUF"
 Read unf file /scr/ericg/tutdel/Gau-13647.EUF:
 Label Gaussian matrix elements                                         IVers= 1 NLab= 2 Version=ES64L-G16RevA.03
 Title RHF/6-31G* geometry optimization of cis-1,2-difluoroethene (no C
 NAtoms=     6 NBasis=    64 NBsUse=    64 ICharg=     0 Multip=     1 NE=    32 Len12L=8 Len4L=8 IOpCl= 0 ICGU= -1
 GAUSSIAN SCALARS                    NI= 1 NR= 1 NTot=       1 LenBuf=    2 NRI=1 N=    1000
 ALPHA DENSITY MATRIX                NI= 0 NR= 1 NTot=    2080 LenBuf= 4000 NRI=1 N=     -64      64
 Store file  10528 Len=    2080.
 ALPHA MO COEFFICIENTS               NI= 0 NR= 1 NTot=    4096 LenBuf= 4000 NRI=1 N=      64      64
 Store file  10524 Len=    4096.
 NPA CHARGES                         NI= 0 NR= 1 NTot=       6 LenBuf= 4000 NRI=1 N=       6
 Recovered energy= -275.717263937     dipole=     -1.105397084367      0.000000000000     -0.000000000000
 Keep R1 ints in memory in canonical form, NReq=3006483.
 Requested convergence on RMS density matrix=1.00D-08 within   1 cycles.
 Requested convergence on MAX density matrix=1.00D-06.
 Requested convergence on             energy=1.00D-06.
 No special actions if energy rises.
 >>>>>>>>>> Convergence criterion not met.
 SCF Done:  E(RHF) =  -275.698430788     A.U. after    2 cycles
            NFock=  1  Conv=0.17D-02     -V/T= 2.0021
 Running external command "gaunbo6 R"
         input file       "/scr/ericg/tutdel/Gau-13647.EIn"
         output file      "/scr/ericg/tutdel/Gau-13647.EOu"
         message file     "/scr/ericg/tutdel/Gau-13647.EMs"
         fchk file        "/scr/ericg/tutdel/Gau-13647.EFC"
         mat. el file     "/scr/ericg/tutdel/Gau-13647.EUF"

 Writing WrtUnf unformatted file "/scr/ericg/tutdel/Gau-13647.EUF"
 Gaussian matrix elements                                         Version   2 NLab=11 Len12L=8 Len4L=8
 Write SHELL TO ATOM MAP                   from file     0 offset           0 length                  20 to matrix element file.
 Write SHELL TYPES                         from file     0 offset           0 length                  20 to matrix element file.
 Write NUMBER OF PRIMITIVES PER SHELL      from file     0 offset           0 length                  20 to matrix element file.
 Write PRIMITIVE EXPONENTS                 from file     0 offset           0 length                  52 to matrix element file.
 Write CONTRACTION COEFFICIENTS            from file     0 offset           0 length                  52 to matrix element file.
 Write P(S=P) CONTRACTION COEFFICIENTS     from file     0 offset           0 length                  52 to matrix element file.
 Write COORDINATES OF EACH SHELL           from file     0 offset           0 length                  60 to matrix element file.
 Write BONDS PER ATOM                      from file     0 offset           0 length                   6 to matrix element file.
 Write BONDED ATOMS                        from file     0 offset           0 length                  10 to matrix element file.
 Write BOND TYPES                          from file     0 offset           0 length                  10 to matrix element file.
 Write GAUSSIAN SCALARS                    from file   501 offset           0 to matrix element file.
 Write INTEGER ISO                         from file     0 offset           0 length                   6 to matrix element file.
 Write INTEGER SPIN                        from file     0 offset           0 length                   6 to matrix element file.
 Write REAL ZEFFECTIVE                     from file     0 offset           0 length                   6 to matrix element file.
 Write REAL GFACTOR                        from file     0 offset           0 length                   6 to matrix element file.
 Write REAL ZNUCLEAR                       from file     0 offset           0 length                   6 to matrix element file.
 Write NUCLEAR GRADIENT                    from file 10584 offset           0 length                  18 to matrix element file.
 Array NUCLEAR FORCE CONSTANTS              on  file 10585 does not exist.
 Write ELECTRIC DIPOLE MOMENT              from file     0 offset           0 length                   3 to matrix element file.
 Write OVERLAP                             from file   514 offset           0 length                2080 to matrix element file.
 Write CORE HAMILTONIAN ALPHA              from file   515 offset           0 length                2080 to matrix element file.
 Write CORE HAMILTONIAN BETA               from file   515 offset        2080 length                2080 to matrix element file.
 Write KINETIC ENERGY                      from file   516 offset           0 length                2080 to matrix element file.
 Write ORTHOGONAL BASIS                    from file   685 offset           0 length                4096 to matrix element file.
 Write DIPOLE INTEGRALS                    from file   518 offset           0 length                6240 to matrix element file.
 Array DIP VEL INTEGRALS                    on  file   572 does not exist.
 Array R X DEL INTEGRALS                    on  file   572 does not exist.
 Write ALPHA ORBITAL ENERGIES              from file     0 offset           0 length                  64 to matrix element file.
 Write ALPHA MO COEFFICIENTS               from file 10524 offset           0 length                4096 to matrix element file.
 Write ALPHA DENSITY MATRIX                from file     0 offset           0 length                2080 to matrix element file.
 Write ALPHA SCF DENSITY MATRIX            from file 10528 offset           0 length                2080 to matrix element file.
 Write ALPHA FOCK MATRIX                   from file 10536 offset           0 length                2080 to matrix element file.
 No 2e integrals to process.
 Perform NBO analysis...executing G16NBO...

 ------------------------------------------------------------------------------
   Energy of deletion :       -275.698430788
     Total SCF energy :       -275.717263937
                          -------------------
        Energy change :          0.018833 a.u.,          11.818 kcal/mol
 ------------------------------------------------------------------------------

 Opening RunExU unformatted file "/scr/ericg/tutdel/Gau-13647.EUF"
 Read unf file /scr/ericg/tutdel/Gau-13647.EUF:
 Label Gaussian matrix elements                                         IVers= 1 NLab= 2 Version=ES64L-G16RevA.03
 Title RHF/6-31G* geometry optimization of cis-1,2-difluoroethene (no C
 NAtoms=     6 NBasis=    64 NBsUse=    64 ICharg=     0 Multip=     1 NE=    32 Len12L=8 Len4L=8 IOpCl= 0 ICGU= -1
 GAUSSIAN SCALARS                    NI= 1 NR= 1 NTot=       1 LenBuf=    2 NRI=1 N=    1000
 Recovered energy= -275.698430788     dipole=     -1.105397084367      0.000000000000     -0.000000000000

 NEF-NEF-NEF-NEF-NEF-NEF-NEF-NEF-NEF-NEF-NEF-NEF-NEF-NEF-NEF-NEF-NEF-NEF-
 NUMERICAL EIGENVECTOR FOLLOWING MINIMUM SEARCH
 NUMERICALLY ESTIMATING GRADIENTS
 ITERATION   0 VARIABLE  1 STEP  1

 NEF-NEF-NEF-NEF-NEF-NEF-NEF-NEF-NEF-NEF-NEF-NEF-NEF-NEF-NEF-NEF-NEF-NEF-
 ---------------------------------------------------------------------------------------------------
                            Z-MATRIX (ANGSTROMS AND DEGREES)
   CD    Cent   Atom    N1       Length/X        N2       Alpha/Y        N3        Beta/Z          J
 ---------------------------------------------------------------------------------------------------
      1      1  C 
      2      2  C        1   1.340201(     1)
      3      3  F        1   1.330000(     2)      2  120.000(     6)
      4      4  F        2   1.330000(     3)      1  120.000(     7)      3    0.000(    10)      0
      5      5  H        1   1.080000(     4)      2  120.000(     8)      3  180.000(    11)      0
      6      6  H        2   1.080000(     5)      1  120.000(     9)      4  180.000(    12)      0
 ---------------------------------------------------------------------------------------------------
                         Z-Matrix orientation:                         
 ---------------------------------------------------------------------
 Center     Atomic      Atomic             Coordinates (Angstroms)
 Number     Number       Type             X           Y           Z
 ---------------------------------------------------------------------
      1          6           0        0.000000    0.000000    0.000000
      2          6           0        0.000000    0.000000    1.340201
      3          9           0        1.151814    0.000000   -0.665000
      4          9           0        1.151814    0.000000    2.005201
      5          1           0       -0.935307   -0.000000   -0.540000
      6          1           0       -0.935307    0.000000    1.880201
 ---------------------------------------------------------------------
                    Distance matrix (angstroms):
                    1          2          3          4          5
     1  C    0.000000
     2  C    1.340201   0.000000
     3  F    1.330000   2.312468   0.000000
     4  F    2.312468   1.330000   2.670201   0.000000
     5  H    1.080000   2.099990   2.090861   3.291523   0.000000
     6  H    2.099990   1.080000   3.291523   2.090861   2.420201
                    6
     6  H    0.000000
 Symmetry turned off by external request.
 Stoichiometry    C2H2F2
 Framework group  C2V[SGV(C2H2F2)]
 Deg. of freedom     5
 Full point group                 C2V     NOp   4
 Rotational constants (GHZ):          20.4005434           6.2042044           4.7573893
 Standard basis: 6-31G(d) (6D, 7F)
    64 basis functions,   120 primitive gaussians,    64 cartesian basis functions
    16 alpha electrons       16 beta electrons
       nuclear repulsion energy       114.5239466506 Hartrees.
 NAtoms=    6 NActive=    6 NUniq=    6 SFac= 1.00D+00 NAtFMM=   60 NAOKFM=F Big=F
 Integral buffers will be    131072 words long.
 Raffenetti 1 integral format.
 Two-electron integral symmetry is turned off.
 One-electron integrals computed using PRISM.
 NBasis=    64 RedAO= T EigKep=  2.91D-03  NBF=    64
 NBsUse=    64 1.00D-06 EigRej= -1.00D+00 NBFU=    64
 Initial guess from the checkpoint file:  "/scr/ericg/tutdel/Gau-13647.chk"
 B after Tr=     0.000000    0.000000    0.000190
         Rot=    1.000000    0.000000    0.000000    0.000000 Ang=   0.00 deg.
 ExpMin= 1.61D-01 ExpMax= 7.00D+03 ExpMxC= 1.05D+03 IAcc=2 IRadAn=         4 AccDes= 0.00D+00
 Harris functional with IExCor=  205 and IRadAn=       4 diagonalized for initial guess.
 HarFok:  IExCor=  205 AccDes= 0.00D+00 IRadAn=         4 IDoV= 1 UseB2=F ITyADJ=14
 ICtDFT=  3500011 ScaDFX=  1.000000  1.000000  1.000000  1.000000
 FoFCou: FMM=F IPFlag=           0 FMFlag=      100000 FMFlg1=           0
         NFxFlg=           0 DoJE=T BraDBF=F KetDBF=T FulRan=T
         wScrn=  0.000000 ICntrl=       500 IOpCl=  0 I1Cent=   200000004 NGrid=           0
         NMat0=    1 NMatS0=      1 NMatT0=    0 NMatD0=    1 NMtDS0=    0 NMtDT0=    0
 Symmetry not used in FoFCou.
 Keep R1 ints in memory in canonical form, NReq=3006540.
 Requested convergence on RMS density matrix=1.00D-08 within 128 cycles.
 Requested convergence on MAX density matrix=1.00D-06.
 Requested convergence on             energy=1.00D-06.
 No special actions if energy rises.
 SCF Done:  E(RHF) =  -275.717248883     A.U. after    9 cycles
            NFock=  9  Conv=0.37D-08     -V/T= 2.0022

 **********************************************************************

            Population analysis using the SCF density.

 **********************************************************************

 Alpha  occ. eigenvalues --  -26.31724 -26.31724 -11.33207 -11.33046  -1.63779
 Alpha  occ. eigenvalues --   -1.62241  -1.05489  -0.84859  -0.77089  -0.74354
 Alpha  occ. eigenvalues --   -0.70520  -0.68981  -0.67756  -0.61546  -0.56331
 Alpha  occ. eigenvalues --   -0.37319
 Alpha virt. eigenvalues --    0.18268   0.25900   0.27999   0.29099   0.44757
 Alpha virt. eigenvalues --    0.59692   0.70405   0.72531   0.75546   0.82992
 Alpha virt. eigenvalues --    0.84803   0.87140   1.03267   1.08434   1.20662
 Alpha virt. eigenvalues --    1.25589   1.35482   1.48453   1.54284   1.58401
 Alpha virt. eigenvalues --    1.62827   1.64444   1.71715   1.72172   1.85111
 Alpha virt. eigenvalues --    1.88962   2.03862   2.08670   2.10610   2.10875
 Alpha virt. eigenvalues --    2.17003   2.18760   2.22531   2.38986   2.41812
 Alpha virt. eigenvalues --    2.59986   2.60445   2.67527   2.79291   2.96656
 Alpha virt. eigenvalues --    3.01441   3.32193   3.35885   3.55507   4.37463
 Alpha virt. eigenvalues --    4.52349   4.71803   5.31057
          Condensed to atoms (all electrons):
               1          2          3          4          5          6
     1  C    4.702022   0.616396   0.248325  -0.038597   0.379318  -0.055625
     2  C    0.616396   4.702022  -0.038597   0.248325  -0.055625   0.379318
     3  F    0.248325  -0.038597   9.166335   0.000677  -0.025376   0.001521
     4  F   -0.038597   0.248325   0.000677   9.166335   0.001521  -0.025376
     5  H    0.379318  -0.055625  -0.025376   0.001521   0.490451   0.004986
     6  H   -0.055625   0.379318   0.001521  -0.025376   0.004986   0.490451
 Mulliken charges:
               1
     1  C    0.148161
     2  C    0.148161
     3  F   -0.352885
     4  F   -0.352885
     5  H    0.204724
     6  H    0.204724
 Sum of Mulliken charges =  -0.00000
 Mulliken charges with hydrogens summed into heavy atoms:
               1
     1  C    0.352885
     2  C    0.352885
     3  F   -0.352885
     4  F   -0.352885
 Electronic spatial extent (au):  <R**2>=            336.5545
 Charge=             -0.0000 electrons
 Dipole moment (field-independent basis, Debye):
    X=             -2.8096    Y=             -0.0000    Z=             -0.0000  Tot=              2.8096
 Quadrupole moment (field-independent basis, Debye-Ang):
   XX=            -22.4174   YY=            -22.1425   ZZ=            -21.9357
   XY=             -0.0000   XZ=             -1.8827   YZ=              0.0000
 Traceless Quadrupole moment (field-independent basis, Debye-Ang):
   XX=             -0.2522   YY=              0.0227   ZZ=              0.2295
   XY=             -0.0000   XZ=             -1.8827   YZ=              0.0000
 Octapole moment (field-independent basis, Debye-Ang**2):
  XXX=            -32.4829  YYY=             -0.0000  ZZZ=            -44.0974  XYY=             -9.0122
  XXY=             -0.0000  XXZ=            -15.0219  XZZ=            -16.6639  YZZ=              0.0000
  YYZ=            -14.8377  XYZ=              0.0000
 Hexadecapole moment (field-independent basis, Debye-Ang**3):
 XXXX=            -97.6088 YYYY=            -18.4783 ZZZZ=           -217.9867 XXXY=             -0.0000
 XXXZ=            -21.7668 YYYX=             -0.0000 YYYZ=              0.0000 ZZZX=            -31.8087
 ZZZY=              0.0000 XXYY=            -19.3952 XXZZ=            -54.5528 YYZZ=            -38.9620
 XXYZ=              0.0000 YYXZ=             -6.0391 ZZXY=             -0.0000
 N-N= 1.145239466506D+02 E-N=-8.843882212336D+02  KE= 2.751051135627D+02
 Running external command "gaunbo6 R"
         input file       "/scr/ericg/tutdel/Gau-13647.EIn"
         output file      "/scr/ericg/tutdel/Gau-13647.EOu"
         message file     "/scr/ericg/tutdel/Gau-13647.EMs"
         fchk file        "/scr/ericg/tutdel/Gau-13647.EFC"
         mat. el file     "/scr/ericg/tutdel/Gau-13647.EUF"

 Writing WrtUnf unformatted file "/scr/ericg/tutdel/Gau-13647.EUF"
 Gaussian matrix elements                                         Version   2 NLab=11 Len12L=8 Len4L=8
 Write SHELL TO ATOM MAP                   from file     0 offset           0 length                  20 to matrix element file.
 Write SHELL TYPES                         from file     0 offset           0 length                  20 to matrix element file.
 Write NUMBER OF PRIMITIVES PER SHELL      from file     0 offset           0 length                  20 to matrix element file.
 Write PRIMITIVE EXPONENTS                 from file     0 offset           0 length                  52 to matrix element file.
 Write CONTRACTION COEFFICIENTS            from file     0 offset           0 length                  52 to matrix element file.
 Write P(S=P) CONTRACTION COEFFICIENTS     from file     0 offset           0 length                  52 to matrix element file.
 Write COORDINATES OF EACH SHELL           from file     0 offset           0 length                  60 to matrix element file.
 Write BONDS PER ATOM                      from file     0 offset           0 length                   6 to matrix element file.
 Write BONDED ATOMS                        from file     0 offset           0 length                  10 to matrix element file.
 Write BOND TYPES                          from file     0 offset           0 length                  10 to matrix element file.
 Write GAUSSIAN SCALARS                    from file   501 offset           0 to matrix element file.
 Write INTEGER ISO                         from file     0 offset           0 length                   6 to matrix element file.
 Write INTEGER SPIN                        from file     0 offset           0 length                   6 to matrix element file.
 Write REAL ZEFFECTIVE                     from file     0 offset           0 length                   6 to matrix element file.
 Write REAL GFACTOR                        from file     0 offset           0 length                   6 to matrix element file.
 Write REAL ZNUCLEAR                       from file     0 offset           0 length                   6 to matrix element file.
 Write NUCLEAR GRADIENT                    from file 10584 offset           0 length                  18 to matrix element file.
 Array NUCLEAR FORCE CONSTANTS              on  file 10585 does not exist.
 Write ELECTRIC DIPOLE MOMENT              from file     0 offset           0 length                   3 to matrix element file.
 Write OVERLAP                             from file   514 offset           0 length                2080 to matrix element file.
 Write CORE HAMILTONIAN ALPHA              from file   515 offset           0 length                2080 to matrix element file.
 Write CORE HAMILTONIAN BETA               from file   515 offset        2080 length                2080 to matrix element file.
 Write KINETIC ENERGY                      from file   516 offset           0 length                2080 to matrix element file.
 Write ORTHOGONAL BASIS                    from file   685 offset           0 length                4096 to matrix element file.
 Write DIPOLE INTEGRALS                    from file   518 offset           0 length                6240 to matrix element file.
 Array DIP VEL INTEGRALS                    on  file   572 does not exist.
 Array R X DEL INTEGRALS                    on  file   572 does not exist.
 Write ALPHA ORBITAL ENERGIES              from file     0 offset           0 length                  64 to matrix element file.
 Write ALPHA MO COEFFICIENTS               from file 10524 offset           0 length                4096 to matrix element file.
 Write ALPHA DENSITY MATRIX                from file     0 offset           0 length                2080 to matrix element file.
[...]
                                         0.0000  0.0338  0.3150  0.0656  0.0469
                                        -0.8703  0.0000  0.0000  0.0448 -0.3509
                                         0.0000  0.0039  0.0000 -0.0937  0.0422
  34. (0.00407) RY ( 2) C  2            s(  1.07%)p69.69( 74.27%)d23.14( 24.66%)
                                         0.0000  0.0074  0.0970  0.0346 -0.0061
                                        -0.3334  0.0000  0.0000 -0.0609  0.7923
                                         0.0000 -0.0850  0.0000  0.2606 -0.4141
  35. (0.00197) RY ( 3) C  2            s(  0.00%)p 1.00(  3.27%)d29.59( 96.73%)
                                         0.0000  0.0000  0.0000  0.0000  0.0000
                                         0.0000  0.0476  0.1744  0.0000  0.0000
                                         0.6900  0.0000  0.7009  0.0000  0.0000
  36. (0.00124) RY ( 4) C  2            s( 18.47%)p 0.87( 16.09%)d 3.54( 65.44%)
                                         0.0000 -0.0028  0.4292 -0.0215  0.0526
                                         0.2349  0.0000  0.0000 -0.0070 -0.3209
                                         0.0000 -0.6487  0.0000  0.2590 -0.4080
  37. (0.00017) RY ( 5) C  2            s(  0.00%)p 1.00( 89.24%)d 0.12( 10.76%)
                                         0.0000  0.0000  0.0000  0.0000  0.0000
                                         0.0000  0.0337  0.9441  0.0000  0.0000
                                         0.0817  0.0000 -0.3176  0.0000  0.0000
  38. (0.00016) RY ( 6) C  2            s( 62.41%)p 0.21( 13.13%)d 0.39( 24.46%)
                                         0.0000  0.0069  0.7893  0.0332  0.0163
                                         0.2330  0.0000  0.0000 -0.0066  0.2769
                                         0.0000  0.1545  0.0000 -0.3992  0.2478
  39. (0.00007) RY ( 7) C  2            s( 58.98%)p 0.04(  2.39%)d 0.65( 38.63%)
  40. (0.00000) RY ( 8) C  2            s(  4.39%)p 0.02(  0.09%)d21.75( 95.52%)
  41. (0.00000) RY ( 9) C  2            s( 44.26%)p 0.14(  6.30%)d 1.12( 49.43%)
  42. (0.00000) RY (10) C  2            s(  0.00%)p 1.00(  7.74%)d11.92( 92.26%)
  43. (0.00170) RY ( 1) F  3            s(  0.00%)p 1.00( 95.59%)d 0.05(  4.41%)
                                         0.0000  0.0000  0.0000  0.0000  0.0000
                                         0.0000  0.0053  0.9777  0.0000  0.0000
                                         0.1542  0.0000 -0.1427  0.0000  0.0000
  44. (0.00160) RY ( 2) F  3            s(  2.36%)p41.02( 96.72%)d 0.39(  0.92%)
                                         0.0000  0.0003  0.1454 -0.0492 -0.0009
                                         0.4931  0.0000  0.0000  0.0028  0.8509
                                         0.0000  0.0873  0.0000  0.0040 -0.0401
  45. (0.00006) RY ( 3) F  3            s( 25.62%)p 1.93( 49.51%)d 0.97( 24.87%)
  46. (0.00004) RY ( 4) F  3            s( 66.90%)p 0.15(  9.83%)d 0.35( 23.27%)
  47. (0.00002) RY ( 5) F  3            s( 12.35%)p 0.06(  0.70%)d 7.04( 86.95%)
  48. (0.00001) RY ( 6) F  3            s( 12.92%)p 0.28(  3.56%)d 6.47( 83.52%)
  49. (0.00000) RY ( 7) F  3            s(  0.00%)p 1.00(  0.83%)d99.99( 99.17%)
  50. (0.00000) RY ( 8) F  3            s( 54.46%)p 0.54( 29.21%)d 0.30( 16.33%)
  51. (0.00000) RY ( 9) F  3            s( 25.40%)p 0.42( 10.79%)d 2.51( 63.81%)
  52. (0.00000) RY (10) F  3            s(  0.00%)p 1.00(  3.68%)d26.19( 96.32%)
  53. (0.00170) RY ( 1) F  4            s(  0.00%)p 1.00( 95.59%)d 0.05(  4.41%)
                                         0.0000  0.0000  0.0000  0.0000  0.0000
                                         0.0000  0.0053  0.9777  0.0000  0.0000
                                         0.1542  0.0000  0.1427  0.0000  0.0000
  54. (0.00160) RY ( 2) F  4            s(  2.36%)p41.02( 96.72%)d 0.39(  0.92%)
                                         0.0000  0.0003  0.1454 -0.0492 -0.0009
                                         0.4931  0.0000  0.0000 -0.0028 -0.8509
                                         0.0000 -0.0873  0.0000  0.0040 -0.0401
  55. (0.00006) RY ( 3) F  4            s( 25.62%)p 1.93( 49.51%)d 0.97( 24.87%)
  56. (0.00004) RY ( 4) F  4            s( 66.90%)p 0.15(  9.83%)d 0.35( 23.27%)
  57. (0.00002) RY ( 5) F  4            s( 12.35%)p 0.06(  0.70%)d 7.04( 86.95%)
  58. (0.00001) RY ( 6) F  4            s( 12.92%)p 0.28(  3.56%)d 6.47( 83.52%)
  59. (0.00000) RY ( 7) F  4            s(  0.00%)p 1.00(  0.83%)d99.99( 99.17%)
  60. (0.00000) RY ( 8) F  4            s( 54.46%)p 0.54( 29.21%)d 0.30( 16.33%)
  61. (0.00000) RY ( 9) F  4            s( 25.40%)p 0.42( 10.79%)d 2.51( 63.81%)
  62. (0.00000) RY (10) F  4            s(  0.00%)p 1.00(  3.68%)d26.19( 96.32%)
  63. (0.00052) RY ( 1) H  5            s(100.00%)
                                        -0.0020  1.0000
  64. (0.00052) RY ( 1) H  6            s(100.00%)
                                        -0.0020  1.0000


 SECOND ORDER PERTURBATION THEORY ANALYSIS OF FOCK MATRIX IN NBO BASIS

     Threshold for printing:   0.50 kcal/mol
                                                          E(2) E(NL)-E(L) F(L,NL)
      Donor (L) NBO              Acceptor (NL) NBO      kcal/mol   a.u.    a.u.
 ===============================================================================

 within unit  1
    5. LP ( 1) F  3            17. BD*( 1) C  1- C  2      0.74    2.09   0.035
    5. LP ( 1) F  3            20. BD*( 1) C  1- H  5      1.06    1.92   0.040
    5. LP ( 1) F  3            23. RY ( 1) C  1            5.92    2.20   0.102
    6. LP ( 2) F  3            17. BD*( 1) C  1- C  2      8.33    1.54   0.101
    6. LP ( 2) F  3            20. BD*( 1) C  1- H  5      9.89    1.37   0.104
    6. LP ( 2) F  3            22. BD*( 1) C  2- H  6      0.50    1.37   0.023
    6. LP ( 2) F  3            24. RY ( 2) C  1            1.33    1.98   0.046
    6. LP ( 2) F  3            26. RY ( 4) C  1            0.97    2.80   0.047
    7. LP ( 3) F  3            18. BD*( 2) C  1- C  2     27.35    0.84   0.135
    7. LP ( 3) F  3            25. RY ( 3) C  1            2.65    2.82   0.077
    8. LP ( 1) F  4            17. BD*( 1) C  1- C  2      0.74    2.09   0.035
    8. LP ( 1) F  4            22. BD*( 1) C  2- H  6      1.06    1.92   0.040
    8. LP ( 1) F  4            33. RY ( 1) C  2            5.92    2.20   0.102
    9. LP ( 2) F  4            17. BD*( 1) C  1- C  2      8.33    1.54   0.101
    9. LP ( 2) F  4            20. BD*( 1) C  1- H  5      0.50    1.37   0.023
    9. LP ( 2) F  4            22. BD*( 1) C  2- H  6      9.89    1.37   0.104
    9. LP ( 2) F  4            34. RY ( 2) C  2            1.33    1.98   0.046
    9. LP ( 2) F  4            36. RY ( 4) C  2            0.97    2.80   0.047
   10. LP ( 3) F  4            18. BD*( 2) C  1- C  2     27.35    0.84   0.135
   10. LP ( 3) F  4            35. RY ( 3) C  2            2.65    2.82   0.077
   11. BD ( 1) C  1- C  2      20. BD*( 1) C  1- H  5      0.70    1.65   0.030
   11. BD ( 1) C  1- C  2      22. BD*( 1) C  2- H  6      0.70    1.65   0.030
   11. BD ( 1) C  1- C  2      44. RY ( 2) F  3            0.91    2.70   0.044
   11. BD ( 1) C  1- C  2      54. RY ( 2) F  4            0.91    2.70   0.044
   12. BD ( 2) C  1- C  2      43. RY ( 1) F  3            1.94    2.00   0.056
   12. BD ( 2) C  1- C  2      53. RY ( 1) F  4            1.94    2.00   0.056
   13. BD ( 1) C  1- F  3      22. BD*( 1) C  2- H  6      1.45    1.93   0.047
   13. BD ( 1) C  1- F  3      33. RY ( 1) C  2            0.58    2.22   0.032
   14. BD ( 1) C  1- H  5      21. BD*( 1) C  2- F  4      4.13    1.31   0.066
   14. BD ( 1) C  1- H  5      33. RY ( 1) C  2            1.28    1.75   0.042
   14. BD ( 1) C  1- H  5      34. RY ( 2) C  2            1.48    2.07   0.049
   14. BD ( 1) C  1- H  5      44. RY ( 2) F  3            1.18    2.51   0.048
   15. BD ( 1) C  2- F  4      20. BD*( 1) C  1- H  5      1.45    1.93   0.047
   15. BD ( 1) C  2- F  4      23. RY ( 1) C  1            0.58    2.22   0.032
   16. BD ( 1) C  2- H  6      19. BD*( 1) C  1- F  3      4.13    1.31   0.066
   16. BD ( 1) C  2- H  6      23. RY ( 1) C  1            1.28    1.75   0.042
   16. BD ( 1) C  2- H  6      24. RY ( 2) C  1            1.48    2.07   0.049
   16. BD ( 1) C  2- H  6      54. RY ( 2) F  4            1.18    2.51   0.048


 NATURAL BOND ORBITALS (Summary):

                                                     Principal Delocalizations
           NBO                 Occupancy    Energy   (geminal,vicinal,remote)
 ===============================================================================
 Molecular unit  1  (C2H2F2)
 ------ Lewis --------------------------------------
    1. CR ( 1) C  1             1.99999   -11.32945
    2. CR ( 1) C  2             1.99999   -11.32945
    3. CR ( 1) F  3             2.00000   -26.32263
    4. CR ( 1) F  4             2.00000   -26.32263
    5. LP ( 1) F  3             1.99254    -1.19362  23(v),20(v),17(v)
    6. LP ( 2) F  3             1.97364    -0.64906  20(v),17(v),24(v),26(v)
                                                     22(r)
    7. LP ( 3) F  3             1.94959    -0.64310  18(v),25(v)
    8. LP ( 1) F  4             1.99254    -1.19362  33(v),22(v),17(v)
    9. LP ( 2) F  4             1.97364    -0.64906  22(v),17(v),34(v),36(v)
                                                     20(r)
   10. LP ( 3) F  4             1.94959    -0.64310  18(v),35(v)
   11. BD ( 1) C  1- C  2       1.99762    -0.92294  44(v),54(v),20(g),22(g)
   12. BD ( 2) C  1- C  2       1.99678    -0.42692  43(v),53(v)
   13. BD ( 1) C  1- F  3       1.99708    -1.20477  22(v),33(v)
   14. BD ( 1) C  1- H  5       1.99037    -0.73518  21(v),34(v),33(v),44(v)
   15. BD ( 1) C  2- F  4       1.99708    -1.20477  20(v),23(v)
   16. BD ( 1) C  2- H  6       1.99037    -0.73518  19(v),24(v),23(v),54(v)
 ------ non-Lewis ----------------------------------
   17. BD*( 1) C  1- C  2       0.02099     0.89260
   18. BD*( 2) C  1- C  2       0.09636     0.19557
   19. BD*( 1) C  1- F  3       0.00608     0.57241
   20. BD*( 1) C  1- H  5       0.01714     0.72373
   21. BD*( 1) C  2- F  4       0.00608     0.57241
   22. BD*( 1) C  2- H  6       0.01714     0.72373
   23. RY ( 1) C  1             0.00608     1.01070
   24. RY ( 2) C  1             0.00407     1.33073
   25. RY ( 3) C  1             0.00197     2.18175
   26. RY ( 4) C  1             0.00124     2.14987
   27. RY ( 5) C  1             0.00017     0.89304
   28. RY ( 6) C  1             0.00016     1.59574
   29. RY ( 7) C  1             0.00007     3.17902
   30. RY ( 8) C  1             0.00000     2.59798
   31. RY ( 9) C  1             0.00000     3.18756
   32. RY (10) C  1             0.00000     1.98585
   33. RY ( 1) C  2             0.00608     1.01070
   34. RY ( 2) C  2             0.00407     1.33073
   35. RY ( 3) C  2             0.00197     2.18175
   36. RY ( 4) C  2             0.00124     2.14987
   37. RY ( 5) C  2             0.00017     0.89304
   38. RY ( 6) C  2             0.00016     1.59574
   39. RY ( 7) C  2             0.00007     3.17902
   40. RY ( 8) C  2             0.00000     2.59798
   41. RY ( 9) C  2             0.00000     3.18756
   42. RY (10) C  2             0.00000     1.98585
   43. RY ( 1) F  3             0.00170     1.57681
   44. RY ( 2) F  3             0.00160     1.77311
   45. RY ( 3) F  3             0.00006     2.79609
   46. RY ( 4) F  3             0.00004     2.10170
   47. RY ( 5) F  3             0.00002     2.36828
   48. RY ( 6) F  3             0.00001     2.32661
   49. RY ( 7) F  3             0.00000     2.13652
   50. RY ( 8) F  3             0.00000     3.69413
   51. RY ( 9) F  3             0.00000     2.76233
   52. RY (10) F  3             0.00000     2.34704
   53. RY ( 1) F  4             0.00170     1.57681
   54. RY ( 2) F  4             0.00160     1.77311
   55. RY ( 3) F  4             0.00006     2.79609
   56. RY ( 4) F  4             0.00004     2.10170
   57. RY ( 5) F  4             0.00002     2.36828
   58. RY ( 6) F  4             0.00001     2.32661
   59. RY ( 7) F  4             0.00000     2.13652
   60. RY ( 8) F  4             0.00000     3.69413
   61. RY ( 9) F  4             0.00000     2.76233
   62. RY (10) F  4             0.00000     2.34704
   63. RY ( 1) H  5             0.00052     0.74587
   64. RY ( 1) H  6             0.00052     0.74587
          -------------------------------
                 Total Lewis   31.80082  ( 99.3776%)
           Valence non-Lewis    0.16378  (  0.5118%)
           Rydberg non-Lewis    0.03540  (  0.1106%)
          -------------------------------
               Total unit  1   32.00000  (100.0000%)
              Charge unit  1    0.00000

 $CHOOSE
   LONE 3 3 4 3 END
   BOND D 1 2 S 1 3 S 1 5 S 2 4 S 2 6 END
 $END

 NBO analysis completed in 0.07 CPU seconds (0 wall seconds)
 Maximum scratch memory used by NBO was 331496 words (2.53 MB)
 Maximum scratch memory used by G16NBO was 14722 words (0.11 MB)


 Deletion of the following orbitals from the NBO Fock matrix:
   19  21

 Orbital occupancies:

       Orbital                         No deletions  This deletion    Change
 ------------------------------------------------------------------------------
    1. CR ( 1) C  1                      1.99999        2.00000       0.00000
    2. CR ( 1) C  2                      1.99999        2.00000       0.00000
    3. CR ( 1) F  3                      2.00000        2.00000       0.00000
    4. CR ( 1) F  4                      2.00000        2.00000       0.00000
    5. LP ( 1) F  3                      1.99254        1.99258       0.00004
    6. LP ( 2) F  3                      1.97364        1.97392       0.00028
    7. LP ( 3) F  3                      1.94959        1.94959       0.00000
    8. LP ( 1) F  4                      1.99254        1.99258       0.00004
    9. LP ( 2) F  4                      1.97364        1.97392       0.00028
   10. LP ( 3) F  4                      1.94959        1.94959       0.00000
   11. BD ( 1) C  1- C  2                1.99762        1.99771       0.00009
   12. BD ( 2) C  1- C  2                1.99678        1.99678       0.00000
   13. BD ( 1) C  1- F  3                1.99708        1.99722       0.00014
   14. BD ( 1) C  1- H  5                1.99037        1.99548       0.00511
   15. BD ( 1) C  2- F  4                1.99708        1.99722       0.00014
   16. BD ( 1) C  2- H  6                1.99037        1.99548       0.00511
   17. BD*( 1) C  1- C  2                0.02099        0.02123       0.00023
   18. BD*( 2) C  1- C  2                0.09636        0.09636       0.00000
   19. BD*( 1) C  1- F  3                0.00608        0.00000      -0.00608
   20. BD*( 1) C  1- H  5                0.01714        0.01734       0.00020
   21. BD*( 1) C  2- F  4                0.00608        0.00000      -0.00608
   22. BD*( 1) C  2- H  6                0.01714        0.01734       0.00020
   23. RY ( 1) C  1                      0.00608        0.00661       0.00054
   24. RY ( 2) C  1                      0.00407        0.00374      -0.00033
   25. RY ( 3) C  1                      0.00197        0.00197       0.00000
   26. RY ( 4) C  1                      0.00124        0.00109      -0.00015
   27. RY ( 5) C  1                      0.00017        0.00017       0.00000
   28. RY ( 6) C  1                      0.00016        0.00016       0.00001
   29. RY ( 7) C  1                      0.00007        0.00007       0.00000
   30. RY ( 8) C  1                      0.00000        0.00001       0.00001
   31. RY ( 9) C  1                      0.00000        0.00002       0.00002
   32. RY (10) C  1                      0.00000        0.00000       0.00000
   33. RY ( 1) C  2                      0.00608        0.00661       0.00054
   34. RY ( 2) C  2                      0.00407        0.00374      -0.00033
   35. RY ( 3) C  2                      0.00197        0.00197       0.00000
   36. RY ( 4) C  2                      0.00124        0.00109      -0.00015
   37. RY ( 5) C  2                      0.00017        0.00017       0.00000
   38. RY ( 6) C  2                      0.00016        0.00016       0.00001
   39. RY ( 7) C  2                      0.00007        0.00007       0.00000
   40. RY ( 8) C  2                      0.00000        0.00001       0.00001
   41. RY ( 9) C  2                      0.00000        0.00002       0.00002
   42. RY (10) C  2                      0.00000        0.00000       0.00000
   43. RY ( 1) F  3                      0.00170        0.00170       0.00000
   44. RY ( 2) F  3                      0.00160        0.00159      -0.00001
   45. RY ( 3) F  3                      0.00006        0.00006       0.00000
   46. RY ( 4) F  3                      0.00004        0.00006       0.00002
   47. RY ( 5) F  3                      0.00002        0.00003       0.00001
   48. RY ( 6) F  3                      0.00001        0.00001       0.00000
   49. RY ( 7) F  3                      0.00000        0.00000       0.00000
   50. RY ( 8) F  3                      0.00000        0.00000       0.00000
   51. RY ( 9) F  3                      0.00000        0.00002       0.00002
   52. RY (10) F  3                      0.00000        0.00000       0.00000
   53. RY ( 1) F  4                      0.00170        0.00170       0.00000
   54. RY ( 2) F  4                      0.00160        0.00159      -0.00001
   55. RY ( 3) F  4                      0.00006        0.00006       0.00000
   56. RY ( 4) F  4                      0.00004        0.00006       0.00002
   57. RY ( 5) F  4                      0.00002        0.00003       0.00001
   58. RY ( 6) F  4                      0.00001        0.00001       0.00000
   59. RY ( 7) F  4                      0.00000        0.00000       0.00000
   60. RY ( 8) F  4                      0.00000        0.00000       0.00000
   61. RY ( 9) F  4                      0.00000        0.00002       0.00002
   62. RY (10) F  4                      0.00000        0.00000       0.00000
   63. RY ( 1) H  5                      0.00052        0.00053       0.00001
   64. RY ( 1) H  6                      0.00052        0.00053       0.00001

 NEXT STEP:  Perform one SCF cycle to evaluate the energy of the new density
             matrix constructed from the deleted NBO Fock matrix.

 ------------------------------------------------------------------------------
 Opening RunExU unformatted file "/scr/ericg/tutdel/Gau-13647.EUF"
 Read unf file /scr/ericg/tutdel/Gau-13647.EUF:
 Label Gaussian matrix elements                                         IVers= 1 NLab= 2 Version=ES64L-G16RevA.03
 Title RHF/6-31G* geometry optimization of cis-1,2-difluoroethene (no C
 NAtoms=     6 NBasis=    64 NBsUse=    64 ICharg=     0 Multip=     1 NE=    32 Len12L=8 Len4L=8 IOpCl= 0 ICGU= -1
 GAUSSIAN SCALARS                    NI= 1 NR= 1 NTot=       1 LenBuf=    2 NRI=1 N=    1000
 ALPHA DENSITY MATRIX                NI= 0 NR= 1 NTot=    2080 LenBuf= 4000 NRI=1 N=     -64      64
 Store file  10528 Len=    2080.
 ALPHA MO COEFFICIENTS               NI= 0 NR= 1 NTot=    4096 LenBuf= 4000 NRI=1 N=      64      64
 Store file  10524 Len=    4096.
 NPA CHARGES                         NI= 0 NR= 1 NTot=       6 LenBuf= 4000 NRI=1 N=       6
 Recovered energy= -275.698430788     dipole=     -1.094827040672     -0.000000000007     -0.006083402631

 This type of calculation cannot be archived.


 The arm of the moral universe is long, but it bends toward justice.
 -- Martin Luther King, Jr.
 Job cpu time:       0 days  0 hours  1 minutes  1.7 seconds.
 Elapsed time:       0 days  0 hours  0 minutes 16.8 seconds.
 File lengths (MBytes):  RWF=      6 Int=      0 D2E=      0 Chk=      1 Scr=      1
 Normal termination of Gaussian 16 at Mon May 18 16:16:33 2020.
