
     Program PWSCF v.7.0 starts on 19Dec2022 at 18:42:44 

     This program is part of the open-source Quantum ESPRESSO suite
     for quantum simulation of materials; please cite
         "P. Giannozzi et al., J. Phys.:Condens. Matter 21 395502 (2009);
         "P. Giannozzi et al., J. Phys.:Condens. Matter 29 465901 (2017);
         "P. Giannozzi et al., J. Chem. Phys. 152 154105 (2020);
          URL http://www.quantum-espresso.org", 
     in publications or presentations arising from this work. More details at
     http://www.quantum-espresso.org/quote

     Serial version
     86198 MiB available memory on the printing compute node when the environment starts

     Waiting for input...
     Reading input from standard input

     Current dimensions of program PWSCF are:
     Max number of different atomic species (ntypx) = 10
     Max number of k-points (npk) =  40000
     Max angular momentum in pseudopotentials (lmaxx) =  4
     Message from routine volume:
     axis vectors are left-handed
     file Ga.pbesol-dn-kjpaw_psl.1.0.0.UPF: wavefunction(s)  4S renormalized
     Message from routine setup:
     using ibrav=0 with symmetry is DISCOURAGED, use correct ibrav instead

     G-vector sticks info
     --------------------
     sticks:   dense  smooth     PW     G-vecs:    dense   smooth      PW
     Sum        2263    1147    349                71537    25509    4111

     Using Slab Decomposition



     bravais-lattice index     =            0
     lattice parameter (alat)  =       7.6834  a.u.
     unit-cell volume          =     320.7304 (a.u.)^3
     number of atoms/cell      =            2
     number of atomic types    =            2
     number of electrons       =        18.00
     number of Kohn-Sham states=           13
     kinetic-energy cutoff     =      70.0000  Ry
     charge density cutoff     =     560.0000  Ry
     scf convergence threshold =      4.0E-10
     mixing beta               =       0.4000
     number of iterations used =            8  plain     mixing
     Exchange-correlation= SLA  PW   PSX  PSC
                           (   1   4  10   8   0   0   0)

     celldm(1)=   7.683369  celldm(2)=   0.000000  celldm(3)=   0.000000
     celldm(4)=   0.000000  celldm(5)=   0.000000  celldm(6)=   0.000000

     crystal axes: (cart. coord. in units of alat)
               a(1) = (   0.707107   0.707107   0.000000 )  
               a(2) = (   0.707107   0.000000   0.707107 )  
               a(3) = (   0.000000   0.707107   0.707107 )  

     reciprocal axes: (cart. coord. in units 2 pi/alat)
               b(1) = (  0.707107  0.707107 -0.707107 )  
               b(2) = (  0.707107 -0.707107  0.707107 )  
               b(3) = ( -0.707107  0.707107  0.707107 )  


     PseudoPot. # 1 for As read from file:
     ./pseudo/As.pbesol-n-rrkjus_psl.0.2.UPF
     MD5 check sum: 5a3a5c7cf1c4ad266a690fa6ec022d9a
     Pseudo is Ultrasoft + core correction, Zval =  5.0
     Generated using "atomic" code by A. Dal Corso  v.5.0.2 svn rev. 9415
     Using radial grid of 1209 points,  4 beta functions with: 
                l(1) =   0
                l(2) =   0
                l(3) =   1
                l(4) =   1
     Q(r) pseudized with 0 coefficients 


     PseudoPot. # 2 for Ga read from file:
     ./pseudo/Ga.pbesol-dn-kjpaw_psl.1.0.0.UPF
     MD5 check sum: f8de82841c3427bd00b37a99bb1dfd69
     Pseudo is Projector augmented-wave + core cor, Zval = 13.0
     Generated using &quot;atomic&quot; code by A. Dal Corso  v.6.3
     Shape of augmentation charge: PSQ
     Using radial grid of 1205 points,  6 beta functions with: 
                l(1) =   0
                l(2) =   0
                l(3) =   1
                l(4) =   1
                l(5) =   2
                l(6) =   2
     Q(r) pseudized with 0 coefficients 


     atomic species   valence    mass     pseudopotential
        As             5.00    74.92160     As( 1.00)
        Ga            13.00    69.72300     Ga( 1.00)

     24 Sym. Ops. (no inversion) found


                                    s                        frac. trans.

      isym =  1     identity                                     

 cryst.   s( 1) = (     1          0          0      )
                  (     0          1          0      )
                  (     0          0          1      )

 cart.    s( 1) = (  1.0000000  0.0000000  0.0000000 )
                  (  0.0000000  1.0000000  0.0000000 )
                  (  0.0000000  0.0000000  1.0000000 )


      isym =  2     180 deg rotation - cart. axis [0,0,1]        

 cryst.   s( 2) = (    -1          0          0      )
                  (    -1          0          1      )
                  (    -1          1          0      )

 cart.    s( 2) = ( -1.0000000  0.0000000  0.0000000 )
                  (  0.0000000 -1.0000000  0.0000000 )
                  (  0.0000000  0.0000000  1.0000000 )


      isym =  3     180 deg rotation - cart. axis [0,1,0]        

 cryst.   s( 3) = (     0         -1          1      )
                  (     0         -1          0      )
                  (     1         -1          0      )

 cart.    s( 3) = ( -1.0000000  0.0000000  0.0000000 )
                  (  0.0000000  1.0000000  0.0000000 )
                  (  0.0000000  0.0000000 -1.0000000 )


      isym =  4     180 deg rotation - cart. axis [1,0,0]        

 cryst.   s( 4) = (     0          1         -1      )
                  (     1          0         -1      )
                  (     0          0         -1      )

 cart.    s( 4) = (  1.0000000  0.0000000  0.0000000 )
                  (  0.0000000 -1.0000000  0.0000000 )
                  (  0.0000000  0.0000000 -1.0000000 )


      isym =  5     120 deg rotation - cart. axis [-1,-1,-1]     

 cryst.   s( 5) = (     0          1          0      )
                  (     0          0          1      )
                  (     1          0          0      )

 cart.    s( 5) = (  0.0000000  1.0000000  0.0000000 )
                  (  0.0000000  0.0000000  1.0000000 )
                  (  1.0000000  0.0000000  0.0000000 )


      isym =  6     120 deg rotation - cart. axis [-1,1,1]       

 cryst.   s( 6) = (     0         -1          0      )
                  (     1         -1          0      )
                  (     0         -1          1      )

 cart.    s( 6) = (  0.0000000 -1.0000000  0.0000000 )
                  (  0.0000000  0.0000000  1.0000000 )
                  ( -1.0000000  0.0000000  0.0000000 )


      isym =  7     120 deg rotation - cart. axis [1,1,-1]       

 cryst.   s( 7) = (     1          0         -1      )
                  (     0          0         -1      )
                  (     0          1         -1      )

 cart.    s( 7) = (  0.0000000  1.0000000  0.0000000 )
                  (  0.0000000  0.0000000 -1.0000000 )
                  ( -1.0000000  0.0000000  0.0000000 )


      isym =  8     120 deg rotation - cart. axis [1,-1,1]       

 cryst.   s( 8) = (    -1          0          1      )
                  (    -1          1          0      )
                  (    -1          0          0      )

 cart.    s( 8) = (  0.0000000 -1.0000000  0.0000000 )
                  (  0.0000000  0.0000000 -1.0000000 )
                  (  1.0000000  0.0000000  0.0000000 )


      isym =  9     120 deg rotation - cart. axis [1,1,1]        

 cryst.   s( 9) = (     0          0          1      )
                  (     1          0          0      )
                  (     0          1          0      )

 cart.    s( 9) = (  0.0000000  0.0000000  1.0000000 )
                  (  1.0000000  0.0000000  0.0000000 )
                  (  0.0000000  1.0000000  0.0000000 )


      isym = 10     120 deg rotation - cart. axis [-1,1,-1]      

 cryst.   s(10) = (     0          0         -1      )
                  (     0          1         -1      )
                  (     1          0         -1      )

 cart.    s(10) = (  0.0000000  0.0000000  1.0000000 )
                  ( -1.0000000  0.0000000  0.0000000 )
                  (  0.0000000 -1.0000000  0.0000000 )


      isym = 11     120 deg rotation - cart. axis [1,-1,-1]      

 cryst.   s(11) = (    -1          1          0      )
                  (    -1          0          0      )
                  (    -1          0          1      )

 cart.    s(11) = (  0.0000000  0.0000000 -1.0000000 )
                  ( -1.0000000  0.0000000  0.0000000 )
                  (  0.0000000  1.0000000  0.0000000 )


      isym = 12     120 deg rotation - cart. axis [-1,-1,1]      

 cryst.   s(12) = (     1         -1          0      )
                  (     0         -1          1      )
                  (     0         -1          0      )

 cart.    s(12) = (  0.0000000  0.0000000 -1.0000000 )
                  (  1.0000000  0.0000000  0.0000000 )
                  (  0.0000000 -1.0000000  0.0000000 )


      isym = 13     inv. 180 deg rotation - cart. axis [1,1,0]   

 cryst.   s(13) = (    -1          0          0      )
                  (    -1          1          0      )
                  (    -1          0          1      )

 cart.    s(13) = (  0.0000000 -1.0000000  0.0000000 )
                  ( -1.0000000  0.0000000  0.0000000 )
                  (  0.0000000  0.0000000  1.0000000 )


      isym = 14     inv. 180 deg rotation - cart. axis [1,-1,0]  

 cryst.   s(14) = (     1          0          0      )
                  (     0          0          1      )
                  (     0          1          0      )

 cart.    s(14) = (  0.0000000  1.0000000  0.0000000 )
                  (  1.0000000  0.0000000  0.0000000 )
                  (  0.0000000  0.0000000  1.0000000 )


      isym = 15     inv.  90 deg rotation - cart. axis [0,0,-1]  

 cryst.   s(15) = (     0         -1          1      )
                  (     1         -1          0      )
                  (     0         -1          0      )

 cart.    s(15) = (  0.0000000 -1.0000000  0.0000000 )
                  (  1.0000000  0.0000000  0.0000000 )
                  (  0.0000000  0.0000000 -1.0000000 )


      isym = 16     inv.  90 deg rotation - cart. axis [0,0,1]   

 cryst.   s(16) = (     0          1         -1      )
                  (     0          0         -1      )
                  (     1          0         -1      )

 cart.    s(16) = (  0.0000000  1.0000000  0.0000000 )
                  ( -1.0000000  0.0000000  0.0000000 )
                  (  0.0000000  0.0000000 -1.0000000 )


      isym = 17     inv. 180 deg rotation - cart. axis [1,0,1]   

 cryst.   s(17) = (     1         -1          0      )
                  (     0         -1          0      )
                  (     0         -1          1      )

 cart.    s(17) = (  0.0000000  0.0000000 -1.0000000 )
                  (  0.0000000  1.0000000  0.0000000 )
                  ( -1.0000000  0.0000000  0.0000000 )


      isym = 18     inv. 180 deg rotation - cart. axis [-1,0,1]  

 cryst.   s(18) = (     0          0          1      )
                  (     0          1          0      )
                  (     1          0          0      )

 cart.    s(18) = (  0.0000000  0.0000000  1.0000000 )
                  (  0.0000000  1.0000000  0.0000000 )
                  (  1.0000000  0.0000000  0.0000000 )


      isym = 19     inv.  90 deg rotation - cart. axis [0,1,0]   

 cryst.   s(19) = (    -1          1          0      )
                  (    -1          0          1      )
                  (    -1          0          0      )

 cart.    s(19) = (  0.0000000  0.0000000 -1.0000000 )
                  (  0.0000000 -1.0000000  0.0000000 )
                  (  1.0000000  0.0000000  0.0000000 )


      isym = 20     inv.  90 deg rotation - cart. axis [0,-1,0]  

 cryst.   s(20) = (     0          0         -1      )
                  (     1          0         -1      )
                  (     0          1         -1      )

 cart.    s(20) = (  0.0000000  0.0000000  1.0000000 )
                  (  0.0000000 -1.0000000  0.0000000 )
                  ( -1.0000000  0.0000000  0.0000000 )


      isym = 21     inv. 180 deg rotation - cart. axis [0,1,1]   

 cryst.   s(21) = (     1          0         -1      )
                  (     0          1         -1      )
                  (     0          0         -1      )

 cart.    s(21) = (  1.0000000  0.0000000  0.0000000 )
                  (  0.0000000  0.0000000 -1.0000000 )
                  (  0.0000000 -1.0000000  0.0000000 )


      isym = 22     inv. 180 deg rotation - cart. axis [0,1,-1]  

 cryst.   s(22) = (     0          1          0      )
                  (     1          0          0      )
                  (     0          0          1      )

 cart.    s(22) = (  1.0000000  0.0000000  0.0000000 )
                  (  0.0000000  0.0000000  1.0000000 )
                  (  0.0000000  1.0000000  0.0000000 )


      isym = 23     inv.  90 deg rotation - cart. axis [-1,0,0]  

 cryst.   s(23) = (    -1          0          1      )
                  (    -1          0          0      )
                  (    -1          1          0      )

 cart.    s(23) = ( -1.0000000  0.0000000  0.0000000 )
                  (  0.0000000  0.0000000 -1.0000000 )
                  (  0.0000000  1.0000000  0.0000000 )


      isym = 24     inv.  90 deg rotation - cart. axis [1,0,0]   

 cryst.   s(24) = (     0         -1          0      )
                  (     0         -1          1      )
                  (     1         -1          0      )

 cart.    s(24) = ( -1.0000000  0.0000000  0.0000000 )
                  (  0.0000000  0.0000000  1.0000000 )
                  (  0.0000000 -1.0000000  0.0000000 )


   Cartesian axes

     site n.     atom                  positions (alat units)
         1           As  tau(   1) = (   0.3535534   0.3535534   0.3535534  )
         2           Ga  tau(   2) = (   0.0000000   0.0000000   0.0000000  )

   Crystallographic axes

     site n.     atom                  positions (cryst. coord.)
         1           As  tau(   1) = (  0.2500000  0.2500000  0.2500000  )
         2           Ga  tau(   2) = (  0.0000000  0.0000000  0.0000000  )

     number of k points=    47  Marzari-Vanderbilt smearing, width (Ry)=  0.0147
                       cart. coord. in units 2pi/alat
        k(    1) = (   0.0000000   0.0000000   0.0000000), wk =   0.0020000
        k(    2) = (  -0.0707107   0.0707107   0.0707107), wk =   0.0160000
        k(    3) = (  -0.1414214   0.1414214   0.1414214), wk =   0.0160000
        k(    4) = (  -0.2121320   0.2121320   0.2121320), wk =   0.0160000
        k(    5) = (  -0.2828427   0.2828427   0.2828427), wk =   0.0160000
        k(    6) = (   0.3535534  -0.3535534  -0.3535534), wk =   0.0080000
        k(    7) = (   0.0000000   0.0000000   0.1414214), wk =   0.0120000
        k(    8) = (  -0.0707107   0.0707107   0.2121320), wk =   0.0480000
        k(    9) = (  -0.1414214   0.1414214   0.2828427), wk =   0.0480000
        k(   10) = (  -0.2121320   0.2121320   0.3535534), wk =   0.0480000
        k(   11) = (   0.4242641  -0.4242641  -0.2828427), wk =   0.0480000
        k(   12) = (   0.3535534  -0.3535534  -0.2121320), wk =   0.0480000
        k(   13) = (   0.2828427  -0.2828427  -0.1414214), wk =   0.0480000
        k(   14) = (   0.2121320  -0.2121320  -0.0707107), wk =   0.0480000
        k(   15) = (   0.1414214  -0.1414214   0.0000000), wk =   0.0240000
        k(   16) = (   0.0000000   0.0000000   0.2828427), wk =   0.0120000
        k(   17) = (  -0.0707107   0.0707107   0.3535534), wk =   0.0480000
        k(   18) = (  -0.1414214   0.1414214   0.4242641), wk =   0.0480000
        k(   19) = (   0.4949747  -0.4949747  -0.2121320), wk =   0.0480000
        k(   20) = (   0.4242641  -0.4242641  -0.1414214), wk =   0.0480000
        k(   21) = (   0.3535534  -0.3535534  -0.0707107), wk =   0.0480000
        k(   22) = (   0.2828427  -0.2828427   0.0000000), wk =   0.0240000
        k(   23) = (   0.0000000   0.0000000   0.4242641), wk =   0.0120000
        k(   24) = (  -0.0707107   0.0707107   0.4949747), wk =   0.0480000
        k(   25) = (   0.5656854  -0.5656854  -0.1414214), wk =   0.0480000
        k(   26) = (   0.4949747  -0.4949747  -0.0707107), wk =   0.0480000
        k(   27) = (   0.4242641  -0.4242641  -0.0000000), wk =   0.0240000
        k(   28) = (   0.0000000   0.0000000   0.5656854), wk =   0.0120000
        k(   29) = (   0.6363961  -0.6363961  -0.0707107), wk =   0.0480000
        k(   30) = (   0.5656854  -0.5656854   0.0000000), wk =   0.0240000
        k(   31) = (   0.0000000   0.0000000  -0.7071068), wk =   0.0060000
        k(   32) = (   0.0000000   0.1414214   0.2828427), wk =   0.0480000
        k(   33) = (  -0.0707107   0.2121320   0.3535534), wk =   0.0960000
        k(   34) = (   0.5656854  -0.4242641  -0.2828427), wk =   0.0960000
        k(   35) = (   0.4949747  -0.3535534  -0.2121320), wk =   0.0480000
        k(   36) = (  -0.0000000   0.1414214   0.4242641), wk =   0.0480000
        k(   37) = (   0.6363961  -0.4949747  -0.2121320), wk =   0.0960000
        k(   38) = (   0.5656854  -0.4242641  -0.1414214), wk =   0.0960000
        k(   39) = (   0.4949747  -0.3535534  -0.0707107), wk =   0.0960000
        k(   40) = (   0.4242641  -0.2828427   0.0000000), wk =   0.0480000
        k(   41) = (   0.7071068  -0.5656854  -0.1414214), wk =   0.0480000
        k(   42) = (   0.6363961  -0.4949747  -0.0707107), wk =   0.0960000
        k(   43) = (   0.5656854  -0.4242641  -0.0000000), wk =   0.0480000
        k(   44) = (   0.0000000   0.1414214  -0.7071068), wk =   0.0240000
        k(   45) = (   0.7071068  -0.4242641  -0.1414214), wk =   0.0480000
        k(   46) = (   0.6363961  -0.3535534  -0.0707107), wk =   0.0480000
        k(   47) = (   0.0000000   0.2828427  -0.7071068), wk =   0.0240000

                       cryst. coord.
        k(    1) = (   0.0000000   0.0000000   0.0000000), wk =   0.0020000
        k(    2) = (   0.0000000   0.0000000   0.1000000), wk =   0.0160000
        k(    3) = (   0.0000000   0.0000000   0.2000000), wk =   0.0160000
        k(    4) = (   0.0000000   0.0000000   0.3000000), wk =   0.0160000
        k(    5) = (   0.0000000   0.0000000   0.4000000), wk =   0.0160000
        k(    6) = (   0.0000000   0.0000000  -0.5000000), wk =   0.0080000
        k(    7) = (   0.0000000   0.1000000   0.1000000), wk =   0.0120000
        k(    8) = (   0.0000000   0.1000000   0.2000000), wk =   0.0480000
        k(    9) = (   0.0000000   0.1000000   0.3000000), wk =   0.0480000
        k(   10) = (   0.0000000   0.1000000   0.4000000), wk =   0.0480000
        k(   11) = (   0.0000000   0.1000000  -0.5000000), wk =   0.0480000
        k(   12) = (   0.0000000   0.1000000  -0.4000000), wk =   0.0480000
        k(   13) = (   0.0000000   0.1000000  -0.3000000), wk =   0.0480000
        k(   14) = (   0.0000000   0.1000000  -0.2000000), wk =   0.0480000
        k(   15) = (   0.0000000   0.1000000  -0.1000000), wk =   0.0240000
        k(   16) = (   0.0000000   0.2000000   0.2000000), wk =   0.0120000
        k(   17) = (   0.0000000   0.2000000   0.3000000), wk =   0.0480000
        k(   18) = (   0.0000000   0.2000000   0.4000000), wk =   0.0480000
        k(   19) = (   0.0000000   0.2000000  -0.5000000), wk =   0.0480000
        k(   20) = (   0.0000000   0.2000000  -0.4000000), wk =   0.0480000
        k(   21) = (   0.0000000   0.2000000  -0.3000000), wk =   0.0480000
        k(   22) = (   0.0000000   0.2000000  -0.2000000), wk =   0.0240000
        k(   23) = (   0.0000000   0.3000000   0.3000000), wk =   0.0120000
        k(   24) = (   0.0000000   0.3000000   0.4000000), wk =   0.0480000
        k(   25) = (   0.0000000   0.3000000  -0.5000000), wk =   0.0480000
        k(   26) = (   0.0000000   0.3000000  -0.4000000), wk =   0.0480000
        k(   27) = (   0.0000000   0.3000000  -0.3000000), wk =   0.0240000
        k(   28) = (   0.0000000   0.4000000   0.4000000), wk =   0.0120000
        k(   29) = (   0.0000000   0.4000000  -0.5000000), wk =   0.0480000
        k(   30) = (   0.0000000   0.4000000  -0.4000000), wk =   0.0240000
        k(   31) = (   0.0000000  -0.5000000  -0.5000000), wk =   0.0060000
        k(   32) = (   0.1000000   0.2000000   0.3000000), wk =   0.0480000
        k(   33) = (   0.1000000   0.2000000   0.4000000), wk =   0.0960000
        k(   34) = (   0.1000000   0.2000000  -0.5000000), wk =   0.0960000
        k(   35) = (   0.1000000   0.2000000  -0.4000000), wk =   0.0480000
        k(   36) = (   0.1000000   0.3000000   0.4000000), wk =   0.0480000
        k(   37) = (   0.1000000   0.3000000  -0.5000000), wk =   0.0960000
        k(   38) = (   0.1000000   0.3000000  -0.4000000), wk =   0.0960000
        k(   39) = (   0.1000000   0.3000000  -0.3000000), wk =   0.0960000
        k(   40) = (   0.1000000   0.3000000  -0.2000000), wk =   0.0480000
        k(   41) = (   0.1000000   0.4000000  -0.5000000), wk =   0.0480000
        k(   42) = (   0.1000000   0.4000000  -0.4000000), wk =   0.0960000
        k(   43) = (   0.1000000   0.4000000  -0.3000000), wk =   0.0480000
        k(   44) = (   0.1000000  -0.5000000  -0.4000000), wk =   0.0240000
        k(   45) = (   0.2000000   0.4000000  -0.4000000), wk =   0.0480000
        k(   46) = (   0.2000000   0.4000000  -0.3000000), wk =   0.0480000
        k(   47) = (   0.2000000  -0.5000000  -0.3000000), wk =   0.0240000

     Dense  grid:    71537 G-vectors     FFT dimensions: (  60,  60,  60)

     Smooth grid:    25509 G-vectors     FFT dimensions: (  45,  45,  45)

     Dynamical RAM for                 wfc:       0.63 MB

     Dynamical RAM for     wfc (w. buffer):      30.20 MB

     Dynamical RAM for           str. fact:       2.18 MB

     Dynamical RAM for           local pot:       0.00 MB

     Dynamical RAM for          nlocal pot:       1.26 MB

     Dynamical RAM for                qrad:       3.80 MB

     Dynamical RAM for          rho,v,vnew:       8.22 MB

     Dynamical RAM for               rhoin:       2.74 MB

     Dynamical RAM for            rho*nmix:      17.47 MB

     Dynamical RAM for           G-vectors:       4.29 MB

     Dynamical RAM for          h,s,v(r/c):       0.03 MB

     Dynamical RAM for          <psi|beta>:       0.01 MB

     Dynamical RAM for                 psi:       1.26 MB

     Dynamical RAM for                hpsi:       1.26 MB

     Dynamical RAM for                spsi:       1.26 MB

     Dynamical RAM for      wfcinit/wfcrot:       1.26 MB

     Dynamical RAM for           addusdens:     204.12 MB

     Dynamical RAM for          addusforce:     204.67 MB

     Dynamical RAM for         addusstress:     219.41 MB

     Estimated static dynamical RAM per process >      64.20 MB

     Estimated max dynamical RAM per process >     301.07 MB

     Initial potential from superposition of free atoms

     starting charge      17.9971, renormalised to      18.0000
     Starting wfcs are   13 randomized atomic wfcs

     total cpu time spent up to now is        5.3 secs

     Self-consistent Calculation

     iteration #  1     ecut=    70.00 Ry     beta= 0.40
     Davidson diagonalization with overlap

---- Real-time Memory Report at c_bands before calling an iterative solver
           248 MiB given to the printing process from OS
             0 MiB allocation reported by mallinfo(arena+hblkhd)
         87984 MiB available memory on the node where the printing process lives
------------------
     ethr =  1.00E-02,  avg # of iterations =  4.0

     Threshold (ethr) on eigenvalues was too large:
     Diagonalizing with lowered threshold

     Davidson diagonalization with overlap

---- Real-time Memory Report at c_bands before calling an iterative solver
           287 MiB given to the printing process from OS
             0 MiB allocation reported by mallinfo(arena+hblkhd)
         87960 MiB available memory on the node where the printing process lives
------------------
     ethr =  2.05E-04,  avg # of iterations =  6.4

     total cpu time spent up to now is       25.6 secs

     WARNING: integrated charge=    18.00082596, expected=    18.00000000

     total energy              =    -293.21840004 Ry
     estimated scf accuracy    <       0.04374943 Ry

     iteration #  2     ecut=    70.00 Ry     beta= 0.40
     Davidson diagonalization with overlap

---- Real-time Memory Report at c_bands before calling an iterative solver
           300 MiB given to the printing process from OS
             0 MiB allocation reported by mallinfo(arena+hblkhd)
         87948 MiB available memory on the node where the printing process lives
------------------
     ethr =  2.43E-04,  avg # of iterations =  2.0

     total cpu time spent up to now is       32.8 secs

     WARNING: integrated charge=    18.00151350, expected=    18.00000000

     total energy              =    -293.22194041 Ry
     estimated scf accuracy    <       0.00695595 Ry

     iteration #  3     ecut=    70.00 Ry     beta= 0.40
     Davidson diagonalization with overlap

---- Real-time Memory Report at c_bands before calling an iterative solver
           301 MiB given to the printing process from OS
             0 MiB allocation reported by mallinfo(arena+hblkhd)
         87947 MiB available memory on the node where the printing process lives
------------------
     ethr =  3.86E-05,  avg # of iterations =  5.2

     total cpu time spent up to now is       42.5 secs

     WARNING: integrated charge=    18.00074726, expected=    18.00000000

     total energy              =    -293.22478864 Ry
     estimated scf accuracy    <       0.00239676 Ry

     iteration #  4     ecut=    70.00 Ry     beta= 0.40
     Davidson diagonalization with overlap

---- Real-time Memory Report at c_bands before calling an iterative solver
           302 MiB given to the printing process from OS
             0 MiB allocation reported by mallinfo(arena+hblkhd)
         87947 MiB available memory on the node where the printing process lives
------------------
     ethr =  1.33E-05,  avg # of iterations =  3.1

     total cpu time spent up to now is       50.1 secs

     WARNING: integrated charge=    18.00019831, expected=    18.00000000

     total energy              =    -293.22505955 Ry
     estimated scf accuracy    <       0.00056487 Ry

     iteration #  5     ecut=    70.00 Ry     beta= 0.40
     Davidson diagonalization with overlap

---- Real-time Memory Report at c_bands before calling an iterative solver
           302 MiB given to the printing process from OS
             0 MiB allocation reported by mallinfo(arena+hblkhd)
         87946 MiB available memory on the node where the printing process lives
------------------
     ethr =  3.14E-06,  avg # of iterations =  4.6

     total cpu time spent up to now is       58.6 secs

     WARNING: integrated charge=    18.00002083, expected=    18.00000000

     total energy              =    -293.22515453 Ry
     estimated scf accuracy    <       0.00004922 Ry

     iteration #  6     ecut=    70.00 Ry     beta= 0.40
     Davidson diagonalization with overlap

---- Real-time Memory Report at c_bands before calling an iterative solver
           303 MiB given to the printing process from OS
             0 MiB allocation reported by mallinfo(arena+hblkhd)
         87946 MiB available memory on the node where the printing process lives
------------------
     ethr =  2.73E-07,  avg # of iterations =  5.8

     total cpu time spent up to now is       69.4 secs

     WARNING: integrated charge=    17.99999752, expected=    18.00000000

     total energy              =    -293.22519441 Ry
     estimated scf accuracy    <       0.00000597 Ry

     iteration #  7     ecut=    70.00 Ry     beta= 0.40
     Davidson diagonalization with overlap

---- Real-time Memory Report at c_bands before calling an iterative solver
           304 MiB given to the printing process from OS
             0 MiB allocation reported by mallinfo(arena+hblkhd)
         87946 MiB available memory on the node where the printing process lives
------------------
     ethr =  3.32E-08,  avg # of iterations =  4.7

     total cpu time spent up to now is       78.7 secs

     WARNING: integrated charge=    18.00001140, expected=    18.00000000

     total energy              =    -293.22519802 Ry
     estimated scf accuracy    <       0.00000085 Ry

     iteration #  8     ecut=    70.00 Ry     beta= 0.40
     Davidson diagonalization with overlap

---- Real-time Memory Report at c_bands before calling an iterative solver
           305 MiB given to the printing process from OS
             0 MiB allocation reported by mallinfo(arena+hblkhd)
         87943 MiB available memory on the node where the printing process lives
------------------
     ethr =  4.73E-09,  avg # of iterations =  4.6

     total cpu time spent up to now is       88.1 secs

     total energy              =    -293.22519822 Ry
     estimated scf accuracy    <       0.00000146 Ry

     iteration #  9     ecut=    70.00 Ry     beta= 0.40
     Davidson diagonalization with overlap

---- Real-time Memory Report at c_bands before calling an iterative solver
           306 MiB given to the printing process from OS
             0 MiB allocation reported by mallinfo(arena+hblkhd)
         87942 MiB available memory on the node where the printing process lives
------------------
     ethr =  4.73E-09,  avg # of iterations =  1.4

     total cpu time spent up to now is       94.7 secs

     total energy              =    -293.22519823 Ry
     estimated scf accuracy    <       0.00000014 Ry

     iteration # 10     ecut=    70.00 Ry     beta= 0.40
     Davidson diagonalization with overlap

---- Real-time Memory Report at c_bands before calling an iterative solver
           306 MiB given to the printing process from OS
             0 MiB allocation reported by mallinfo(arena+hblkhd)
         87942 MiB available memory on the node where the printing process lives
------------------
     ethr =  7.79E-10,  avg # of iterations =  5.3

     total cpu time spent up to now is      104.5 secs

     total energy              =    -293.22519833 Ry
     estimated scf accuracy    <       0.00000001 Ry

     iteration # 11     ecut=    70.00 Ry     beta= 0.40
     Davidson diagonalization with overlap

---- Real-time Memory Report at c_bands before calling an iterative solver
           306 MiB given to the printing process from OS
             0 MiB allocation reported by mallinfo(arena+hblkhd)
         87942 MiB available memory on the node where the printing process lives
------------------
     ethr =  6.26E-11,  avg # of iterations =  5.3

     total cpu time spent up to now is      114.3 secs

     total energy              =    -293.22519833 Ry
     estimated scf accuracy    <       0.00000003 Ry

     iteration # 12     ecut=    70.00 Ry     beta= 0.40
     Davidson diagonalization with overlap

---- Real-time Memory Report at c_bands before calling an iterative solver
           306 MiB given to the printing process from OS
             0 MiB allocation reported by mallinfo(arena+hblkhd)
         87943 MiB available memory on the node where the printing process lives
------------------
     ethr =  6.26E-11,  avg # of iterations =  2.0

     total cpu time spent up to now is      121.5 secs

     total energy              =    -293.22519833 Ry
     estimated scf accuracy    <          2.9E-09 Ry

     iteration # 13     ecut=    70.00 Ry     beta= 0.40
     Davidson diagonalization with overlap

---- Real-time Memory Report at c_bands before calling an iterative solver
           306 MiB given to the printing process from OS
             0 MiB allocation reported by mallinfo(arena+hblkhd)
         87943 MiB available memory on the node where the printing process lives
------------------
     ethr =  1.60E-11,  avg # of iterations =  6.3

     total cpu time spent up to now is      132.7 secs

     total energy              =    -293.22519833 Ry
     estimated scf accuracy    <       0.00000001 Ry

     iteration # 14     ecut=    70.00 Ry     beta= 0.40
     Davidson diagonalization with overlap

---- Real-time Memory Report at c_bands before calling an iterative solver
           306 MiB given to the printing process from OS
             0 MiB allocation reported by mallinfo(arena+hblkhd)
         87944 MiB available memory on the node where the printing process lives
------------------
     ethr =  1.60E-11,  avg # of iterations =  1.9

     total cpu time spent up to now is      139.8 secs

     total energy              =    -293.22519833 Ry
     estimated scf accuracy    <          2.9E-09 Ry

     iteration # 15     ecut=    70.00 Ry     beta= 0.40
     Davidson diagonalization with overlap

---- Real-time Memory Report at c_bands before calling an iterative solver
           306 MiB given to the printing process from OS
             0 MiB allocation reported by mallinfo(arena+hblkhd)
         87944 MiB available memory on the node where the printing process lives
------------------
     ethr =  1.59E-11,  avg # of iterations =  4.3

     total cpu time spent up to now is      148.1 secs

     End of self-consistent calculation

          k = 0.0000 0.0000 0.0000 (  3143 PWs)   bands (ev):

    -8.7184  -8.7184  -8.7184  -8.6514  -8.6514  -6.4138   5.9837   5.9837
     5.9837   6.0728   9.6642   9.6642   9.6642

     occupation numbers 
     1.0000   1.0000   1.0000   1.0000   1.0000   1.0000   0.5425   0.5425
     0.5425   0.2482   0.0000   0.0000   0.0000

          k =-0.0707 0.0707 0.0707 (  3173 PWs)   bands (ev):

    -8.7253  -8.7164  -8.7164  -8.6514  -8.6514  -6.3047   4.3884   5.8359
     5.8359   7.1735   9.8580   9.8875   9.8875

     occupation numbers 
     1.0000   1.0000   1.0000   1.0000   1.0000   1.0000   1.0000   1.0053
     1.0053   0.0000   0.0000   0.0000   0.0000

          k =-0.1414 0.1414 0.1414 (  3161 PWs)   bands (ev):

    -8.7425  -8.7116  -8.7116  -8.6512  -8.6512  -5.9912   2.7008   5.5154
     5.5154   7.3311  10.3281  10.3281  10.8901

     occupation numbers 
     1.0000   1.0000   1.0000   1.0000   1.0000   1.0000   1.0000   1.0092
     1.0092   0.0000   0.0000   0.0000   0.0000

          k =-0.2121 0.2121 0.2121 (  3173 PWs)   bands (ev):

    -8.7622  -8.7065  -8.7065  -8.6501  -8.6501  -5.5241   1.1805   5.2009
     5.2009   7.0744  10.5803  10.5803  12.4119

     occupation numbers 
     1.0000   1.0000   1.0000   1.0000   1.0000   1.0000   1.0000   1.0000
     1.0000   0.0000   0.0000   0.0000   0.0000

          k =-0.2828 0.2828 0.2828 (  3175 PWs)   bands (ev):

    -8.7772  -8.7031  -8.7031  -8.6484  -8.6484  -5.0324   0.0335   4.9876
     4.9876   6.8545  10.5813  10.5813  13.4867

     occupation numbers 
     1.0000   1.0000   1.0000   1.0000   1.0000   1.0000   1.0000   1.0000
     1.0000   0.0000   0.0000   0.0000   0.0000

          k = 0.3536-0.3536-0.3536 (  3178 PWs)   bands (ev):

    -8.7828  -8.7021  -8.7021  -8.6475  -8.6475  -4.7955  -0.4253   4.9133
     4.9133   6.7754  10.5486  10.5486  13.5627

     occupation numbers 
     1.0000   1.0000   1.0000   1.0000   1.0000   1.0000   1.0000   1.0000
     1.0000   0.0000   0.0000   0.0000   0.0000

          k = 0.0000 0.0000 0.1414 (  3179 PWs)   bands (ev):

    -8.7296  -8.7146  -8.7146  -8.6529  -8.6502  -6.2683   4.3134   5.5596
     5.5596   7.6951   9.1859  10.2763  10.2763

     occupation numbers 
     1.0000   1.0000   1.0000   1.0000   1.0000   1.0000   1.0000   1.0185
     1.0185   0.0000   0.0000   0.0000   0.0000

          k =-0.0707 0.0707 0.2121 (  3188 PWs)   bands (ev):

    -8.7436  -8.7106  -8.7097  -8.6542  -8.6491  -6.0224   3.0556   5.1857
     5.2280   8.1242   9.2369  10.8493  10.9816

     occupation numbers 
     1.0000   1.0000   1.0000   1.0000   1.0000   1.0000   1.0000   1.0000
     1.0000   0.0000   0.0000   0.0000   0.0000

          k =-0.1414 0.1414 0.2828 (  3176 PWs)   bands (ev):

    -8.7611  -8.7062  -8.7043  -8.6543  -8.6479  -5.6028   1.6018   4.8014
     4.8789   7.9648   9.8601  11.1916  11.6840

     occupation numbers 
     1.0000   1.0000   1.0000   1.0000   1.0000   1.0000   1.0000   1.0000
     1.0000   0.0000   0.0000   0.0000   0.0000

          k =-0.2121 0.2121 0.3536 (  3166 PWs)   bands (ev):

    -8.7762  -8.7027  -8.7006  -8.6526  -8.6468  -5.1040   0.3666   4.4075
     4.7156   7.7298  10.1915  11.1530  12.6588

     occupation numbers 
     1.0000   1.0000   1.0000   1.0000   1.0000   1.0000   1.0000   1.0000
     1.0000   0.0000   0.0000   0.0000   0.0000

          k = 0.4243-0.4243-0.2828 (  3166 PWs)   bands (ev):

    -8.7840  -8.7010  -8.6994  -8.6500  -8.6470  -4.7506  -0.3337   4.1448
     4.7203   7.5965  10.2855  10.9675  13.6787

     occupation numbers 
     1.0000   1.0000   1.0000   1.0000   1.0000   1.0000   1.0000   1.0000
     1.0000   0.0000   0.0000   0.0000   0.0000

          k = 0.3536-0.3536-0.2121 (  3166 PWs)   bands (ev):

    -8.7820  -8.7010  -8.7004  -8.6491  -8.6485  -4.8329  -0.1794   4.0557
     4.8872   7.6049  10.4372  10.8118  13.6504

     occupation numbers 
     1.0000   1.0000   1.0000   1.0000   1.0000   1.0000   1.0000   1.0000
     1.0000   0.0000   0.0000   0.0000   0.0000

          k = 0.2828-0.2828-0.1414 (  3164 PWs)   bands (ev):

    -8.7708  -8.7038  -8.7028  -8.6517  -8.6486  -5.2709   0.7413   4.1649
     5.1846   7.7461  10.6185  10.6595  12.5080

     occupation numbers 
     1.0000   1.0000   1.0000   1.0000   1.0000   1.0000   1.0000   1.0000
     1.0000   0.0000   0.0000   0.0000   0.0000

          k = 0.2121-0.2121-0.0707 (  3161 PWs)   bands (ev):

    -8.7537  -8.7091  -8.7066  -8.6530  -8.6495  -5.7596   2.0651   4.4969
     5.5427   7.9300  10.3487  10.3533  11.5096

     occupation numbers 
     1.0000   1.0000   1.0000   1.0000   1.0000   1.0000   1.0000   1.0000
     1.0143   0.0000   0.0000   0.0000   0.0000

          k = 0.1414-0.1414 0.0000 (  3173 PWs)   bands (ev):

    -8.7362  -8.7142  -8.7118  -8.6526  -8.6504  -6.1272   3.4399   5.1024
     5.8227   7.7748   9.7729   9.9579  10.8320

     occupation numbers 
     1.0000   1.0000   1.0000   1.0000   1.0000   1.0000   1.0000   1.0000
     1.0273   0.0000   0.0000   0.0000   0.0000

          k = 0.0000 0.0000 0.2828 (  3187 PWs)   bands (ev):

    -8.7559  -8.7044  -8.7044  -8.6575  -8.6472  -5.8487   2.6747   4.7715
     4.7715   8.2240   9.0210  11.6169  11.6169

     occupation numbers 
     1.0000   1.0000   1.0000   1.0000   1.0000   1.0000   1.0000   1.0000
     1.0000   0.0000   0.0000   0.0000   0.0000

          k =-0.0707 0.0707 0.3536 (  3171 PWs)   bands (ev):

    -8.7706  -8.6994  -8.6984  -8.6596  -8.6456  -5.4937   1.6811   4.2760
     4.4409   8.2297   9.1894  11.7747  12.2041

     occupation numbers 
     1.0000   1.0000   1.0000   1.0000   1.0000   1.0000   1.0000   1.0000
     1.0000   0.0000   0.0000   0.0000   0.0000

          k =-0.1414 0.1414 0.4243 (  3169 PWs)   bands (ev):

    -8.7827  -8.6969  -8.6941  -8.6592  -8.6447  -5.0269   0.6127   3.6701
     4.2725   8.2499   9.9019  11.5918  12.2944

     occupation numbers 
     1.0000   1.0000   1.0000   1.0000   1.0000   1.0000   1.0000   1.0000
     1.0000   0.0000   0.0000   0.0000   0.0000

          k = 0.4950-0.4950-0.2121 (  3172 PWs)   bands (ev):

    -8.7892  -8.6966  -8.6926  -8.6563  -8.6456  -4.6187  -0.1544   3.1877
     4.2931   8.2018  10.5114  12.0579  12.2656

     occupation numbers 
     1.0000   1.0000   1.0000   1.0000   1.0000   1.0000   1.0000   1.0000
     1.0000   0.0000   0.0000   0.0000   0.0000

          k = 0.4243-0.4243-0.1414 (  3181 PWs)   bands (ev):

    -8.7885  -8.6975  -8.6937  -8.6528  -8.6485  -4.5530  -0.2606   2.9363
     4.4970   8.2739  10.6639  11.7491  13.4041

     occupation numbers 
     1.0000   1.0000   1.0000   1.0000   1.0000   1.0000   1.0000   1.0000
     1.0000   0.0000   0.0000   0.0000   0.0000

          k = 0.3536-0.3536-0.0707 (  3165 PWs)   bands (ev):

    -8.7808  -8.6991  -8.6976  -8.6519  -8.6502  -4.8904   0.3412   2.9904
     4.8462   8.4437  10.8602  11.3833  12.2836

     occupation numbers 
     1.0000   1.0000   1.0000   1.0000   1.0000   1.0000   1.0000   1.0000
     1.0000   0.0000   0.0000   0.0000   0.0000

          k = 0.2828-0.2828 0.0000 (  3152 PWs)   bands (ev):

    -8.7681  -8.7035  -8.7020  -8.6535  -8.6491  -5.3623   1.2503   3.4782
     5.2521   8.4912  10.7290  10.8447  11.4371

     occupation numbers 
     1.0000   1.0000   1.0000   1.0000   1.0000   1.0000   1.0000   1.0000
     1.0000   0.0000   0.0000   0.0000   0.0000

          k = 0.0000 0.0000 0.4243 (  3154 PWs)   bands (ev):

    -8.7839  -8.6916  -8.6916  -8.6640  -8.6435  -5.2108   1.1661   4.0743
     4.0743   7.6485   8.7744  13.2043  13.2043

     occupation numbers 
     1.0000   1.0000   1.0000   1.0000   1.0000   1.0000   1.0000   1.0000
     1.0000   0.0000   0.0000   0.0000   0.0000

          k =-0.0707 0.0707 0.4950 (  3177 PWs)   bands (ev):

    -8.7943  -8.6878  -8.6866  -8.6656  -8.6423  -4.8085   0.4239   3.5457
     3.8706   7.7779   8.7294  13.0111  13.6761

     occupation numbers 
     1.0000   1.0000   1.0000   1.0000   1.0000   1.0000   1.0000   1.0000
     1.0000   0.0000   0.0000   0.0000   0.0000

          k = 0.5657-0.5657-0.1414 (  3173 PWs)   bands (ev):

    -8.7986  -8.6886  -8.6847  -8.6635  -8.6432  -4.4190  -0.1751   2.8388
     3.8644   7.9033   9.7490  12.7095  13.5253

     occupation numbers 
     1.0000   1.0000   1.0000   1.0000   1.0000   1.0000   1.0000   1.0000
     1.0000   0.0000   0.0000   0.0000   0.0000

          k = 0.4950-0.4950-0.0707 (  3172 PWs)   bands (ev):

    -8.7967  -8.6919  -8.6861  -8.6592  -8.6463  -4.2737  -0.3559   2.3595
     4.0559   8.0580  11.1779  12.7596  13.0689

     occupation numbers 
     1.0000   1.0000   1.0000   1.0000   1.0000   1.0000   1.0000   1.0000
     1.0000   0.0000   0.0000   0.0000   0.0000

          k = 0.4243-0.4243-0.0000 (  3170 PWs)   bands (ev):

    -8.7900  -8.6956  -8.6907  -8.6542  -8.6499  -4.4899  -0.0767   2.3503
     4.4117   8.3374  11.6925  12.3400  12.5276

     occupation numbers 
     1.0000   1.0000   1.0000   1.0000   1.0000   1.0000   1.0000   1.0000
     1.0000   0.0000   0.0000   0.0000   0.0000

          k = 0.0000 0.0000 0.5657 (  3178 PWs)   bands (ev):

    -8.8042  -8.6810  -8.6810  -8.6698  -8.6405  -4.4982  -0.0746   3.6208
     3.6208   7.3719   8.0152  14.8053  14.8053

     occupation numbers 
     1.0000   1.0000   1.0000   1.0000   1.0000   1.0000   1.0000   1.0000
     1.0000   0.0000   0.0000   0.0000   0.0000

          k = 0.6364-0.6364-0.0707 (  3182 PWs)   bands (ev):

    -8.8077  -8.6807  -8.6789  -8.6694  -8.6405  -4.2137  -0.4640   3.1627
     3.5688   7.5706   8.2248  14.6040  15.0121

     occupation numbers 
     1.0000   1.0000   1.0000   1.0000   1.0000   1.0000   1.0000   1.0000
     1.0000   0.0000   0.0000   0.0000   0.0000

          k = 0.5657-0.5657 0.0000 (  3188 PWs)   bands (ev):

    -8.8043  -8.6853  -8.6807  -8.6653  -8.6430  -4.1217  -0.5206   2.5385
     3.7223   7.7428   9.6030  14.0580  14.3271

     occupation numbers 
     1.0000   1.0000   1.0000   1.0000   1.0000   1.0000   1.0000   1.0000
     1.0000   0.0000   0.0000   0.0000   0.0000

          k = 0.0000 0.0000-0.7071 (  3218 PWs)   bands (ev):

    -8.8114  -8.6769  -8.6769  -8.6721  -8.6393  -4.1200  -0.6308   3.4649
     3.4649   7.4215   7.5707  15.7470  15.7470

     occupation numbers 
     1.0000   1.0000   1.0000   1.0000   1.0000   1.0000   1.0000   1.0000
     1.0000   0.0000   0.0000   0.0000   0.0000

          k = 0.0000 0.1414 0.2828 (  3185 PWs)   bands (ev):

    -8.7581  -8.7060  -8.7040  -8.6560  -8.6477  -5.7217   2.1564   4.2906
     5.1353   8.5960   9.2114  11.3194  11.4218

     occupation numbers 
     1.0000   1.0000   1.0000   1.0000   1.0000   1.0000   1.0000   1.0000
     1.0000   0.0000   0.0000   0.0000   0.0000

          k =-0.0707 0.2121 0.3536 (  3171 PWs)   bands (ev):

    -8.7729  -8.7017  -8.6991  -8.6560  -8.6469  -5.2748   1.0395   3.6854
     4.8252   8.6017   9.8346  11.3158  11.9017

     occupation numbers 
     1.0000   1.0000   1.0000   1.0000   1.0000   1.0000   1.0000   1.0000
     1.0000   0.0000   0.0000   0.0000   0.0000

          k = 0.5657-0.4243-0.2828 (  3165 PWs)   bands (ev):

    -8.7838  -8.6995  -8.6957  -8.6541  -8.6470  -4.8081   0.0743   3.3842
     4.5346   8.4586  10.1126  11.6094  12.5931

     occupation numbers 
     1.0000   1.0000   1.0000   1.0000   1.0000   1.0000   1.0000   1.0000
     1.0000   0.0000   0.0000   0.0000   0.0000

          k = 0.4950-0.3536-0.2121 (  3164 PWs)   bands (ev):

    -8.7878  -8.6989  -8.6945  -8.6524  -8.6476  -4.5856  -0.3278   3.2955
     4.4213   8.4004  10.0919  11.6802  13.5786

     occupation numbers 
     1.0000   1.0000   1.0000   1.0000   1.0000   1.0000   1.0000   1.0000
     1.0000   0.0000   0.0000   0.0000   0.0000

          k =-0.0000 0.1414 0.4243 (  3172 PWs)   bands (ev):

    -8.7830  -8.6949  -8.6925  -8.6616  -8.6443  -5.1114   0.9244   3.6114
     4.2105   8.4213   9.1559  11.6760  13.0942

     occupation numbers 
     1.0000   1.0000   1.0000   1.0000   1.0000   1.0000   1.0000   1.0000
     1.0000   0.0000   0.0000   0.0000   0.0000

          k = 0.6364-0.4950-0.2121 (  3163 PWs)   bands (ev):

    -8.7913  -8.6939  -8.6883  -8.6607  -8.6446  -4.6700   0.1639   3.0345
     3.9438   8.6526   9.8837  11.3628  13.4561

     occupation numbers 
     1.0000   1.0000   1.0000   1.0000   1.0000   1.0000   1.0000   1.0000
     1.0000   0.0000   0.0000   0.0000   0.0000

          k = 0.5657-0.4243-0.1414 (  3168 PWs)   bands (ev):

    -8.7940  -8.6949  -8.6870  -8.6578  -8.6465  -4.3752  -0.2879   2.6471
     3.8952   8.7306  10.5866  11.8277  13.3500

     occupation numbers 
     1.0000   1.0000   1.0000   1.0000   1.0000   1.0000   1.0000   1.0000
     1.0000   0.0000   0.0000   0.0000   0.0000

          k = 0.4950-0.3536-0.0707 (  3174 PWs)   bands (ev):

    -8.7912  -8.6965  -8.6888  -8.6557  -8.6482  -4.4581  -0.1580   2.5426
     4.0981   8.9141  10.5829  11.8534  13.4147

     occupation numbers 
     1.0000   1.0000   1.0000   1.0000   1.0000   1.0000   1.0000   1.0000
     1.0000   0.0000   0.0000   0.0000   0.0000

          k = 0.4243-0.2828 0.0000 (  3163 PWs)   bands (ev):

    -8.7837  -8.6984  -8.6933  -8.6562  -8.6475  -4.8420   0.4092   2.8551
     4.4695   9.0604  10.2874  11.0390  12.7975

     occupation numbers 
     1.0000   1.0000   1.0000   1.0000   1.0000   1.0000   1.0000   1.0000
     1.0000   0.0000   0.0000   0.0000   0.0000

          k = 0.7071-0.5657-0.1414 (  3169 PWs)   bands (ev):

    -8.8012  -8.6858  -8.6823  -8.6663  -8.6420  -4.4451  -0.1109   3.2182
     3.5189   8.1348   8.6204  12.9570  14.7186

     occupation numbers 
     1.0000   1.0000   1.0000   1.0000   1.0000   1.0000   1.0000   1.0000
     1.0000   0.0000   0.0000   0.0000   0.0000

          k = 0.6364-0.4950-0.0707 (  3180 PWs)   bands (ev):

    -8.8019  -8.6883  -8.6811  -8.6637  -8.6438  -4.1811  -0.4207   2.6533
     3.4395   8.4167   9.6975  12.6091  14.0823

     occupation numbers 
     1.0000   1.0000   1.0000   1.0000   1.0000   1.0000   1.0000   1.0000
     1.0000   0.0000   0.0000   0.0000   0.0000

          k = 0.5657-0.4243-0.0000 (  3180 PWs)   bands (ev):

    -8.7978  -8.6926  -8.6833  -8.6595  -8.6468  -4.1919  -0.3820   2.3041
     3.6768   8.6578  11.1856  12.1590  12.8508

     occupation numbers 
     1.0000   1.0000   1.0000   1.0000   1.0000   1.0000   1.0000   1.0000
     1.0000   0.0000   0.0000   0.0000   0.0000

          k = 0.0000 0.1414-0.7071 (  3180 PWs)   bands (ev):

    -8.8077  -8.6820  -8.6787  -8.6680  -8.6413  -4.1034  -0.5769   3.1471
     3.2128   8.1254   8.2799  14.4087  14.5376

     occupation numbers 
     1.0000   1.0000   1.0000   1.0000   1.0000   1.0000   1.0000   1.0000
     1.0000   0.0000   0.0000   0.0000   0.0000

          k = 0.7071-0.4243-0.1414 (  3157 PWs)   bands (ev):

    -8.7963  -8.6935  -8.6836  -8.6601  -8.6460  -4.3181  -0.2239   2.5928
     3.4818   9.6922  10.0147  11.0032  13.8878

     occupation numbers 
     1.0000   1.0000   1.0000   1.0000   1.0000   1.0000   1.0000   1.0000
     1.0000   0.0000   0.0000   0.0000   0.0000

          k = 0.6364-0.3536-0.0707 (  3178 PWs)   bands (ev):

    -8.7979  -8.6937  -8.6820  -8.6593  -8.6471  -4.1606  -0.3940   2.4587
     3.2715   9.8200  10.5096  11.4689  12.5334

     occupation numbers 
     1.0000   1.0000   1.0000   1.0000   1.0000   1.0000   1.0000   1.0000
     1.0000   0.0000   0.0000   0.0000   0.0000

          k = 0.0000 0.2828-0.7071 (  3172 PWs)   bands (ev):

    -8.8010  -8.6910  -8.6800  -8.6616  -8.6457  -4.0762  -0.4804   2.7146
     2.8824   9.7907   9.8322  12.0749  12.4950

     occupation numbers 
     1.0000   1.0000   1.0000   1.0000   1.0000   1.0000   1.0000   1.0000
     1.0000   0.0000   0.0000   0.0000   0.0000

     the Fermi energy is     6.0230 ev

!    total energy              =    -293.22519833 Ry
     estimated scf accuracy    <          7.5E-12 Ry
     smearing contrib. (-TS)   =       0.00011641 Ry
     internal energy E=F+TS    =    -293.22531474 Ry

     The total energy is F=E-TS. E is the sum of the following terms:
     one-electron contribution =    -122.22049003 Ry
     hartree contribution      =      75.95213025 Ry
     xc contribution           =     -46.91793367 Ry
     ewald contribution        =     -91.45239809 Ry
     one-center paw contrib.   =    -108.58662321 Ry
      -> PAW hartree energy AE =     141.89549693 Ry
      -> PAW hartree energy PS =    -139.99165572 Ry
      -> PAW xc energy AE      =    -147.88296816 Ry
      -> PAW xc energy PS      =      37.39250374 Ry
      -> total E_H with PAW    =      77.85597146 Ry
      -> total E_XC with PAW   =    -157.40839809 Ry

     convergence has been achieved in  15 iterations

     Forces acting on atoms (cartesian axes, Ry/au):

     atom    1 type  1   force =     0.00000000    0.00000000    0.00000000
     atom    2 type  2   force =     0.00000000   -0.00000000    0.00000000
     The non-local contrib.  to forces
     atom    1 type  1   force =     0.00000000   -0.00000000   -0.00000000
     atom    2 type  2   force =     0.00000000    0.00000000    0.00000000
     The ionic contribution  to forces
     atom    1 type  1   force =     0.00000000   -0.00000000    0.00000000
     atom    2 type  2   force =    -0.00000000   -0.00000000    0.00000000
     The local contribution  to forces
     atom    1 type  1   force =     0.00000000    0.00000000    0.00000000
     atom    2 type  2   force =     0.00000000    0.00000000    0.00000000
     The core correction contribution to forces
     atom    1 type  1   force =     0.00000000    0.00000000    0.00000000
     atom    2 type  2   force =     0.00000000    0.00000000    0.00000000
     The Hubbard contrib.    to forces
     atom    1 type  1   force =     0.00000000    0.00000000    0.00000000
     atom    2 type  2   force =     0.00000000    0.00000000    0.00000000
     The SCF correction term to forces
     atom    1 type  1   force =    -0.00000000   -0.00000000   -0.00000000
     atom    2 type  2   force =    -0.00000000   -0.00000000    0.00000000

     Total force =     0.000000     Total SCF correction =     0.000000


     Computing stress (Cartesian axis) and pressure

          total   stress  (Ry/bohr**3)                   (kbar)     P=      -29.17
  -0.00019827   0.00000000  -0.00000000          -29.17        0.00       -0.00
   0.00000000  -0.00019827   0.00000000            0.00      -29.17        0.00
  -0.00000000   0.00000000  -0.00019827           -0.00        0.00      -29.17

     kinetic stress (kbar)   6474.21      0.00     -0.00
                                0.00   6474.21      0.00
                               -0.00      0.00   6474.21

     local   stress (kbar)  -1177.64     -0.00     -0.00
                               -0.00  -1177.64     -0.00
                               -0.00     -0.00  -1177.64

     nonloc. stress (kbar)   1308.44     -0.00     -0.00
                                0.00   1308.44     -0.00
                               -0.00     -0.00   1308.44

     hartree stress (kbar)  11611.98      0.00      0.00
                                0.00  11611.98      0.00
                                0.00      0.00  11611.98

     exc-cor stress (kbar)   5152.56      0.00      0.00
                                0.00   5152.56     -0.00
                                0.00     -0.00   5152.56

     corecor stress (kbar)  -9416.97     -0.00      0.00
                               -0.00  -9416.97     -0.00
                               -0.00     -0.00  -9416.97

     ewald   stress (kbar) -13981.74      0.00      0.00
                                0.00 -13981.74      0.00
                                0.00      0.00 -13981.74

     hubbard stress (kbar)      0.00      0.00      0.00
                                0.00      0.00      0.00
                                0.00      0.00      0.00

     DFT-D   stress (kbar)      0.00      0.00      0.00
                                0.00      0.00      0.00
                                0.00      0.00      0.00

     XDM     stress (kbar)      0.00      0.00      0.00
                                0.00      0.00      0.00
                                0.00      0.00      0.00

     dft-nl  stress (kbar)      0.00      0.00      0.00
                                0.00      0.00      0.00
                                0.00      0.00      0.00

     TS-vdW  stress (kbar)      0.00      0.00      0.00
                                0.00      0.00      0.00
                                0.00      0.00      0.00


                                0.00      0.00      0.00
                                0.00      0.00      0.00


                                0.00      0.00      0.00


     Writing all to output data dir ./out/aiida.save/

     init_run     :      4.84s CPU      5.00s WALL (       1 calls)
     electrons    :    140.71s CPU    142.83s WALL (       1 calls)
     forces       :      1.19s CPU      1.26s WALL (       1 calls)
     stress       :      3.61s CPU      3.80s WALL (       1 calls)

     Called by init_run:
     wfcinit      :      2.83s CPU      2.87s WALL (       1 calls)
     wfcinit:atom :      0.06s CPU      0.07s WALL (      47 calls)
     wfcinit:wfcr :      2.49s CPU      2.53s WALL (      47 calls)
     potinit      :      0.48s CPU      0.52s WALL (       1 calls)
     hinit0       :      1.23s CPU      1.24s WALL (       1 calls)

     Called by electrons:
     c_bands      :    113.06s CPU    113.56s WALL (      16 calls)
     sum_band     :     20.00s CPU     20.83s WALL (      16 calls)
     v_of_rho     :      2.37s CPU      2.41s WALL (      16 calls)
     v_h          :      0.10s CPU      0.10s WALL (      16 calls)
     v_xc         :      2.60s CPU      2.65s WALL (      18 calls)
     newd         :      2.53s CPU      3.32s WALL (      16 calls)
     PAW_pot      :      3.01s CPU      3.02s WALL (      16 calls)
     mix_rho      :      0.21s CPU      0.22s WALL (      16 calls)

     Called by c_bands:
     init_us_2    :      2.39s CPU      2.43s WALL (    1645 calls)
     init_us_2:cp :      2.38s CPU      2.43s WALL (    1645 calls)
     cegterg      :    110.03s CPU    110.16s WALL (     752 calls)

     Called by sum_band:
     sum_band:wei :      0.01s CPU      0.02s WALL (      16 calls)
     sum_band:loo :     16.76s CPU     16.79s WALL (      16 calls)
     sum_band:buf :      0.08s CPU      0.08s WALL (     752 calls)
     sum_band:ini :      1.07s CPU      1.08s WALL (     752 calls)
     sum_band:cal :      1.51s CPU      1.52s WALL (     752 calls)
     sum_band:bec :      0.01s CPU      0.01s WALL (     752 calls)
     addusdens    :      3.03s CPU      3.82s WALL (      16 calls)
     addusd:skk   :      0.01s CPU      0.01s WALL (      32 calls)
     addusd:dgemm :      0.54s CPU      1.32s WALL (      32 calls)
     addusd:qvan2 :      1.51s CPU      1.51s WALL (      32 calls)

     Called by *egterg:
     cdiaghg      :      0.68s CPU      0.69s WALL (    3851 calls)
     cegterg:over :      4.98s CPU      4.98s WALL (    3146 calls)
     cegterg:upda :      1.99s CPU      1.99s WALL (    3146 calls)
     cegterg:last :      7.12s CPU      7.12s WALL (    1885 calls)
     h_psi        :     91.36s CPU     91.49s WALL (    3945 calls)
     s_psi        :      3.90s CPU      3.90s WALL (    3945 calls)
     g_psi        :      0.40s CPU      0.40s WALL (    3146 calls)

     Called by h_psi:
     h_psi:calbec :      4.42s CPU      4.41s WALL (    3945 calls)
     vloc_psi     :     82.89s CPU     83.01s WALL (    3945 calls)
     add_vuspsi   :      3.91s CPU      3.91s WALL (    3945 calls)

     General routines
     calbec       :      6.49s CPU      6.48s WALL (    4932 calls)
     fft          :      1.20s CPU      1.20s WALL (     232 calls)
     ffts         :      0.07s CPU      0.07s WALL (      32 calls)
     fftw         :     89.44s CPU     89.55s WALL (   68352 calls)
     interpolate  :      0.13s CPU      0.13s WALL (      16 calls)


     PAW routines
     PAW_pot      :      3.01s CPU      3.02s WALL (      16 calls)
     PAW_symme    :      0.00s CPU      0.01s WALL (      32 calls)

     PWSCF        :   2m30.61s CPU   2m33.43s WALL


   This run was terminated on:  18:45:17  19Dec2022            

=------------------------------------------------------------------------------=
   JOB DONE.
=------------------------------------------------------------------------------=
