 Entering Gaussian System, Link 0=/opt/g16.b01/g16/g16
 Initial command:
 /opt/g16.b01/g16/l1.exe "/scr/ericg/h2o/Gau-19344.inp" -scrdir="/scr/ericg/h2o/"
 Entering Link 1 = /opt/g16.b01/g16/l1.exe PID=     19346.
  
 Copyright (c) 1988-2017, Gaussian, Inc.  All Rights Reserved.
  
 This is part of the Gaussian(R) 16 program.  It is based on
 the Gaussian(R) 09 system (copyright 2009, Gaussian, Inc.),
 the Gaussian(R) 03 system (copyright 2003, Gaussian, Inc.),
 the Gaussian(R) 98 system (copyright 1998, Gaussian, Inc.),
 the Gaussian(R) 94 system (copyright 1995, Gaussian, Inc.),
 the Gaussian 92(TM) system (copyright 1992, Gaussian, Inc.),
 the Gaussian 90(TM) system (copyright 1990, Gaussian, Inc.),
 the Gaussian 88(TM) system (copyright 1988, Gaussian, Inc.),
 the Gaussian 86(TM) system (copyright 1986, Carnegie Mellon
 University), and the Gaussian 82(TM) system (copyright 1983,
 Carnegie Mellon University). Gaussian is a federally registered
 trademark of Gaussian, Inc.
  
 This software contains proprietary and confidential information,
 including trade secrets, belonging to Gaussian, Inc.
  
 This software is provided under written license and may be
 used, copied, transmitted, or stored only in accord with that
 written license.
  
 The following legend is applicable only to US Government
 contracts under FAR:
  
                    RESTRICTED RIGHTS LEGEND
  
 Use, reproduction and disclosure by the US Government is
 subject to restrictions as set forth in subparagraphs (a)
 and (c) of the Commercial Computer Software - Restricted
 Rights clause in FAR 52.227-19.
  
 Gaussian, Inc.
 340 Quinnipiac St., Bldg. 40, Wallingford CT 06492
  
  
 ---------------------------------------------------------------
 Warning -- This program may not be used in any manner that
 competes with the business of Gaussian, Inc. or will provide
 assistance to any competitor of Gaussian, Inc.  The licensee
 of this program is prohibited from giving any competitor of
 Gaussian, Inc. access to this program.  By using this program,
 the user acknowledges that Gaussian, Inc. is engaged in the
 business of creating and licensing software in the field of
 computational chemistry and represents and warrants to the
 licensee that it is not a competitor of Gaussian, Inc. and that
 it will not use this program in any manner prohibited above.
 ---------------------------------------------------------------
  

 Cite this work as:
 Gaussian 16, Revision B.01,
 M. J. Frisch, G. W. Trucks, H. B. Schlegel, G. E. Scuseria, 
 M. A. Robb, J. R. Cheeseman, G. Scalmani, V. Barone, 
 G. A. Petersson, H. Nakatsuji, X. Li, M. Caricato, A. V. Marenich, 
 J. Bloino, B. G. Janesko, R. Gomperts, B. Mennucci, H. P. Hratchian, 
 J. V. Ortiz, A. F. Izmaylov, J. L. Sonnenberg, D. Williams-Young, 
 F. Ding, F. Lipparini, F. Egidi, J. Goings, B. Peng, A. Petrone, 
 T. Henderson, D. Ranasinghe, V. G. Zakrzewski, J. Gao, N. Rega, 
 G. Zheng, W. Liang, M. Hada, M. Ehara, K. Toyota, R. Fukuda, 
 J. Hasegawa, M. Ishida, T. Nakajima, Y. Honda, O. Kitao, H. Nakai, 
 T. Vreven, K. Throssell, J. A. Montgomery, Jr., J. E. Peralta, 
 F. Ogliaro, M. J. Bearpark, J. J. Heyd, E. N. Brothers, K. N. Kudin, 
 V. N. Staroverov, T. A. Keith, R. Kobayashi, J. Normand, 
 K. Raghavachari, A. P. Rendell, J. C. Burant, S. S. Iyengar, 
 J. Tomasi, M. Cossi, J. M. Millam, M. Klene, C. Adamo, R. Cammi, 
 J. W. Ochterski, R. L. Martin, K. Morokuma, O. Farkas, 
 J. B. Foresman, and D. J. Fox, Gaussian, Inc., Wallingford CT, 2016.
 
 ******************************************
 Gaussian 16:  ES64L-G16RevB.01 20-Dec-2017
                18-May-2020 
 ******************************************
 %nproc=4
 Will use up to    4 processors via shared memory.
 ----------------------
 # rhf/cc-pV6Z pop=nbo6
 ----------------------
 1/38=1,172=1/1;
 2/12=2,17=6,18=5,40=1/2;
 3/5=16,6=4,11=1,25=1,30=1,116=1/1,2,3;
 4//1;
 5/5=2,38=5/2;
 6/7=2,8=2,9=2,10=2,28=1,40=1,113=1,114=1,124=3103/1,12;
 99/5=1,9=1/99;
 ------------------------------
 Water...rhf/cc-pV6Z//idealized
 ------------------------------
 Symbolic Z-matrix:
 Charge =  0 Multiplicity = 1
 O                     0.        0.        0.11085 
 H                     0.        0.78384  -0.44341 
 H                     0.       -0.78384  -0.44341 
 
                          Input orientation:                          
 ---------------------------------------------------------------------
 Center     Atomic      Atomic             Coordinates (Angstroms)
 Number     Number       Type             X           Y           Z
 ---------------------------------------------------------------------
      1          8           0        0.000000    0.000000    0.110851
      2          1           0        0.000000    0.783837   -0.443405
      3          1           0        0.000000   -0.783837   -0.443405
 ---------------------------------------------------------------------
                    Distance matrix (angstroms):
                    1          2          3
     1  O    0.000000
     2  H    0.960000   0.000000
     3  H    0.960000   1.567674   0.000000
 Stoichiometry    H2O
 Framework group  C2V[C2(O),SGV(H2)]
 Deg. of freedom     2
 Full point group                 C2V     NOp   4
 Largest Abelian subgroup         C2V     NOp   4
 Largest concise Abelian subgroup C2      NOp   2
                         Standard orientation:                         
 ---------------------------------------------------------------------
 Center     Atomic      Atomic             Coordinates (Angstroms)
 Number     Number       Type             X           Y           Z
 ---------------------------------------------------------------------
      1          8           0        0.000000   -0.000000    0.110851
      2          1           0        0.000000    0.783837   -0.443405
      3          1           0       -0.000000   -0.783837   -0.443405
 ---------------------------------------------------------------------
 Rotational constants (GHZ):         919.0235871         408.0849148         282.5990955
 Standard basis: CC-pV6Z (5D, 7F)
 There are   160 symmetry adapted cartesian basis functions of A1  symmetry.
 There are    76 symmetry adapted cartesian basis functions of A2  symmetry.
 There are    96 symmetry adapted cartesian basis functions of B1  symmetry.
 There are   130 symmetry adapted cartesian basis functions of B2  symmetry.
 There are   106 symmetry adapted basis functions of A1  symmetry.
 There are    57 symmetry adapted basis functions of A2  symmetry.
 There are    69 symmetry adapted basis functions of B1  symmetry.
 There are    90 symmetry adapted basis functions of B2  symmetry.
   322 basis functions,   497 primitive gaussians,   462 cartesian basis functions
     5 alpha electrons        5 beta electrons
       nuclear repulsion energy         9.1571750818 Hartrees.
 NAtoms=    3 NActive=    3 NUniq=    2 SFac= 2.25D+00 NAtFMM=   60 NAOKFM=F Big=F
 Integral buffers will be    131072 words long.
 Raffenetti 1 integral format.
 Two-electron integral symmetry is turned on.
 One-electron integrals computed using PRISM.
 PrsmSu:  requested number of processors reduced to:   1 ShMem   1 Linda.
 PrsmSu:  requested number of processors reduced to:   2 ShMem   1 Linda.
 NBasis=   322 RedAO= T EigKep=  1.06D-05  NBF=   106    57    69    90
 NBsUse=   322 1.00D-06 EigRej= -1.00D+00 NBFU=   106    57    69    90
 ExpMin= 6.22D-02 ExpMax= 5.71D+05 ExpMxC= 6.49D+02 IAcc=3 IRadAn=         5 AccDes= 0.00D+00
 Harris functional with IExCor=  205 and IRadAn=       5 diagonalized for initial guess.
 HarFok:  IExCor=  205 AccDes= 0.00D+00 IRadAn=         5 IDoV= 1 UseB2=F ITyADJ=14
 ICtDFT=  3500011 ScaDFX=  1.000000  1.000000  1.000000  1.000000
 FoFCou: FMM=F IPFlag=           0 FMFlag=      100000 FMFlg1=           0
         NFxFlg=           0 DoJE=T BraDBF=F KetDBF=T FulRan=T
         wScrn=  0.000000 ICntrl=       500 IOpCl=  0 I1Cent=   200000004 NGrid=           0
         NMat0=    1 NMatS0=      1 NMatT0=    0 NMatD0=    1 NMtDS0=    0 NMtDT0=    0
 Petite list used in FoFCou.
 CoulSu:  requested number of processors reduced to:   2 ShMem   1 Linda.
 CoulSu:  requested number of processors reduced to:   2 ShMem   1 Linda.
 CoulSu:  requested number of processors reduced to:   2 ShMem   1 Linda.
 CoulSu:  requested number of processors reduced to:   2 ShMem   1 Linda.
 Initial guess orbital symmetries:
       Occupied  (A1) (A1) (B2) (A1) (B1)
       Virtual   (A1) (B2) (A1) (B1) (B2) (A1) (B2) (A1) (A2) (A1)
                 (B1) (B2) (A1) (B2) (A1) (B2) (A1) (B1) (B1) (A2)
                 (A1) (B2) (B1) (A1) (A1) (B2) (A2) (B1) (B2) (A1)
                 (A2) (B2) (A1) (B2) (A1) (B2) (B1) (A2) (A1) (A1)
                 (B2) (B1) (A2) (A1) (B1) (B2) (A1) (A1) (B1) (B2)
                 (B2) (A1) (A2) (A1) (B2) (B1) (B1) (A1) (B2) (A2)
                 (B1) (A2) (A1) (A1) (B2) (B2) (A2) (A1) (B1) (B2)
                 (A1) (A1) (A2) (B2) (B1) (B2) (B1) (B2) (A1) (A2)
                 (B2) (A1) (B1) (A2) (A1) (A1) (B2) (B1) (A1) (A2)
                 (B1) (B2) (A1) (A1) (B1) (B2) (A1) (A2) (B2) (A2)
                 (B1) (A1) (A1) (B2) (A1) (B1) (B2) (A1) (B1) (A2)
                 (B2) (A1) (A2) (B1) (B2) (B1) (B2) (A2) (A1) (B2)
                 (A1) (B2) (B1) (A2) (A2) (B2) (B1) (A1) (A1) (B1)
                 (A1) (B2) (B2) (A2) (A1) (A1) (B1) (B2) (B2) (A1)
                 (A2) (B1) (A2) (A1) (B1) (B2) (A2) (A1) (A1) (A2)
                 (B2) (B1) (B2) (A1) (B2) (B2) (B1) (A1) (B1) (A1)
                 (A2) (A1) (B1) (B2) (B2) (A2) (A1) (B1) (A1) (B2)
                 (A1) (A2) (B1) (A2) (B2) (B1) (A1) (A1) (B1) (A2)
                 (B2) (B2) (A1) (B1) (A2) (B2) (A1) (A1) (B2) (B1)
                 (A1) (B2) (A1) (B1) (A2) (B2) (A2) (A1) (B1) (B2)
                 (A2) (A2) (A1) (B2) (A1) (B2) (B1) (B1) (A1) (B2)
                 (B1) (A1) (A1) (A2) (A2) (B2) (B2) (B1) (A2) (A1)
                 (B1) (B2) (A1) (A1) (B2) (A2) (B1) (A1) (B1) (A2)
                 (B2) (A2) (A1) (B2) (B1) (A1) (B2) (A1) (B1) (A2)
                 (B1) (B2) (A1) (A2) (A1) (B2) (B2) (A1) (B1) (A2)
                 (B2) (A1) (B1) (A2) (B2) (A1) (A2) (A1) (B2) (A2)
                 (B1) (A1) (B1) (B2) (A2) (B2) (A1) (A1) (B1) (B2)
                 (A1) (B1) (B1) (B2) (A1) (A2) (A2) (B2) (B1) (B2)
                 (A1) (B1) (A2) (B2) (A1) (A1) (B2) (A1) (B1) (B2)
                 (A1) (B1) (A1) (A2) (B1) (A1) (B2) (A2) (B2) (A1)
                 (B1) (A2) (B2) (A1) (B2) (B1) (A2) (A1) (A1) (B2)
                 (B1) (A2) (B2) (A1) (A1) (B2) (A1)
 The electronic state of the initial guess is 1-A1.
 Requested convergence on RMS density matrix=1.00D-08 within 128 cycles.
 Requested convergence on MAX density matrix=1.00D-06.
 Requested convergence on             energy=1.00D-06.
 No special actions if energy rises.
 Integral accuracy reduced to 1.0D-05 until final iterations.
 CoulSu:  requested number of processors reduced to:   2 ShMem   1 Linda.
 CoulSu:  requested number of processors reduced to:   2 ShMem   1 Linda.
 CoulSu:  requested number of processors reduced to:   2 ShMem   1 Linda.
 CoulSu:  requested number of processors reduced to:   2 ShMem   1 Linda.
 CoulSu:  requested number of processors reduced to:   2 ShMem   1 Linda.
 Initial convergence to 1.0D-05 achieved.  Increase integral accuracy.
 CoulSu:  requested number of processors reduced to:   2 ShMem   1 Linda.
 CoulSu:  requested number of processors reduced to:   2 ShMem   1 Linda.
 CoulSu:  requested number of processors reduced to:   2 ShMem   1 Linda.
 CoulSu:  requested number of processors reduced to:   2 ShMem   1 Linda.
 CoulSu:  requested number of processors reduced to:   2 ShMem   1 Linda.
 SCF Done:  E(RHF) =  -76.0668426588     A.U. after   10 cycles
            NFock= 10  Conv=0.37D-08     -V/T= 2.0011

 **********************************************************************

            Population analysis using the SCF Density.

 **********************************************************************

 Orbital symmetries:
       Occupied  (A1) (A1) (B2) (A1) (B1)
       Virtual   (A1) (B2) (A1) (B1) (B2) (A1) (B2) (A1) (A2) (A1)
                 (B1) (B2) (A1) (B2) (B2) (A1) (B1) (A1) (A2) (B1)
                 (A1) (B2) (B1) (A1) (A1) (B2) (A2) (B2) (B1) (A1)
                 (A2) (B2) (A1) (B2) (A1) (B2) (B1) (A2) (A1) (B2)
                 (A1) (B1) (A1) (A2) (B1) (B2) (A1) (B2) (A1) (B1)
                 (B2) (A1) (A2) (A1) (B2) (B1) (B1) (A1) (B2) (A2)
                 (B1) (A1) (A2) (A1) (B2) (A2) (B2) (B1) (B2) (A1)
                 (A1) (B2) (A1) (A2) (B1) (B2) (A1) (B1) (B2) (A2)
                 (B2) (A1) (B1) (A2) (A1) (B2) (A1) (B1) (A1) (A2)
                 (B2) (B1) (A1) (A1) (B2) (B1) (A1) (B2) (A2) (A2)
                 (B1) (A1) (A1) (B2) (B1) (A1) (B2) (A1) (A2) (B2)
                 (B1) (A1) (A2) (B2) (B1) (B1) (B2) (A1) (A2) (B2)
                 (A1) (B1) (A2) (B2) (B2) (A2) (A1) (B1) (A1) (A1)
                 (B1) (B2) (A2) (A1) (B2) (B1) (A1) (B2) (A1) (B2)
                 (A2) (B1) (A2) (B2) (B1) (A1) (A2) (A1) (A2) (A1)
                 (B2) (B1) (B2) (A1) (B2) (B2) (B1) (A1) (B1) (A1)
                 (A2) (A1) (B2) (B1) (B2) (A2) (A1) (B1) (A1) (B2)
                 (A1) (B1) (A2) (A2) (B2) (B1) (A1) (A1) (B1) (A2)
                 (B2) (B2) (A1) (B1) (A1) (B2) (A2) (A1) (B2) (B1)
                 (A1) (B1) (B2) (A2) (B2) (A1) (A2) (A1) (B1) (B2)
                 (A2) (A2) (A1) (B2) (A1) (B1) (B2) (B1) (A1) (B1)
                 (A1) (B2) (A2) (B2) (A1) (B2) (A2) (B1) (A1) (B2)
                 (B1) (A2) (A1) (A2) (B1) (B1) (A1) (B2) (A2) (A1)
                 (B2) (A2) (A1) (B2) (B1) (A1) (B2) (A1) (A2) (B1)
                 (B1) (B2) (A1) (A2) (A1) (B2) (B2) (A1) (A2) (B1)
                 (B2) (B1) (A1) (B2) (A1) (A2) (A2) (A1) (B2) (B1)
                 (A2) (A1) (B2) (B1) (A2) (B2) (A1) (A1) (B1) (B2)
                 (A1) (B1) (B1) (B2) (A1) (A2) (B2) (A2) (B1) (B2)
                 (A1) (B1) (B2) (A2) (A1) (A1) (B2) (A1) (B1) (B2)
                 (A1) (B1) (A1) (A2) (B1) (A1) (B2) (A2) (B2) (A1)
                 (A2) (B1) (B2) (A1) (B2) (B1) (A2) (A1) (A1) (B2)
                 (B1) (A2) (B2) (A1) (A1) (B2) (A1)
 The electronic state is 1-A1.
 Alpha  occ. eigenvalues --  -20.56192  -1.34754  -0.72534  -0.57465  -0.50868
 Alpha virt. eigenvalues --    0.07049   0.10830   0.24228   0.26863   0.28832
 Alpha virt. eigenvalues --    0.30874   0.39444   0.41676   0.46832   0.49064
 Alpha virt. eigenvalues --    0.51752   0.63467   0.65774   0.66932   0.76219
 Alpha virt. eigenvalues --    0.78104   0.98377   0.98676   1.01101   1.03063
 Alpha virt. eigenvalues --    1.05314   1.10456   1.19843   1.21232   1.27168
 Alpha virt. eigenvalues --    1.28962   1.33274   1.44307   1.44793   1.46188
 Alpha virt. eigenvalues --    1.51375   1.55304   1.56388   1.58400   1.68915
 Alpha virt. eigenvalues --    1.72280   1.83236   1.83401   1.98518   2.08609
 Alpha virt. eigenvalues --    2.11173   2.29950   2.30658   2.31426   2.33984
 Alpha virt. eigenvalues --    2.43365   2.52382   2.60851   2.61945   2.63456
 Alpha virt. eigenvalues --    2.78209   2.80109   2.86103   2.95267   2.98393
 Alpha virt. eigenvalues --    3.08652   3.14391   3.17175   3.42182   3.42643
 Alpha virt. eigenvalues --    3.51508   3.62092   3.64235   3.67371   3.76150
 Alpha virt. eigenvalues --    3.76277   3.80038   3.84174   3.86194   3.89897
 Alpha virt. eigenvalues --    3.96712   4.04834   4.06896   4.07849   4.13556
 Alpha virt. eigenvalues --    4.30495   4.43534   4.45632   4.47489   4.51488
 Alpha virt. eigenvalues --    4.59461   4.71701   4.72592   4.80393   5.08555
 Alpha virt. eigenvalues --    5.14561   5.20006   5.35540   5.36307   5.44563
 Alpha virt. eigenvalues --    5.47027   5.53697   5.54549   5.67236   5.77167
 Alpha virt. eigenvalues --    5.78280   5.95143   6.08239   6.10416   6.14284
 Alpha virt. eigenvalues --    6.22558   6.26958   6.54152   6.54226   6.74281
 Alpha virt. eigenvalues --    6.75488   6.93978   7.05765   7.11215   7.16546
 Alpha virt. eigenvalues --    7.28547   7.63342   7.67309   7.69392   7.70254
 Alpha virt. eigenvalues --    7.83177   8.02884   8.04037   8.07213   8.28942
 Alpha virt. eigenvalues --    8.53025   8.61954   8.64222   8.64751   8.66783
 Alpha virt. eigenvalues --    8.71585   8.72011   8.79350   8.83710   8.87023
 Alpha virt. eigenvalues --    8.87208   8.87320   9.12066   9.13675   9.14130
 Alpha virt. eigenvalues --    9.17695   9.19249   9.22111   9.41290   9.44809
 Alpha virt. eigenvalues --    9.47297   9.67681   9.74723   9.79075   9.81002
 Alpha virt. eigenvalues --    9.82912   9.96109  10.00369  10.28311  10.33083
 Alpha virt. eigenvalues --   10.37068  10.49821  10.62163  10.69570  10.90429
 Alpha virt. eigenvalues --   11.02207  11.11243  11.19102  11.53542  11.67531
 Alpha virt. eigenvalues --   11.74246  11.79762  12.01395  12.09290  12.13784
 Alpha virt. eigenvalues --   12.26601  12.59079  12.78171  12.82214  13.07502
 Alpha virt. eigenvalues --   13.21529  13.30370  13.30375  13.38896  13.46793
 Alpha virt. eigenvalues --   13.48229  13.55637  13.64596  13.92249  14.01983
 Alpha virt. eigenvalues --   14.06349  14.28545  14.36388  14.42518  14.46630
 Alpha virt. eigenvalues --   14.52015  14.52337  15.28646  15.89076  16.61170
 Alpha virt. eigenvalues --   16.91020  16.92695  16.96769  16.99273  17.00327
 Alpha virt. eigenvalues --   17.02102  17.24078  17.36375  17.37140  17.53640
 Alpha virt. eigenvalues --   17.74990  17.88948  18.35085  18.46140  18.82739
 Alpha virt. eigenvalues --   19.14314  19.16879  19.61279  19.64168  19.81036
 Alpha virt. eigenvalues --   19.87590  19.93376  19.98322  20.01954  20.10667
 Alpha virt. eigenvalues --   20.13731  20.16729  20.29568  20.39247  20.43443
 Alpha virt. eigenvalues --   20.45109  20.46496  20.55564  20.63292  20.65858
 Alpha virt. eigenvalues --   20.69912  20.70997  20.71883  20.72820  20.82512
 Alpha virt. eigenvalues --   20.84109  20.97559  21.05911  21.31770  21.50939
 Alpha virt. eigenvalues --   21.56528  21.76579  21.95903  22.26245  22.32140
 Alpha virt. eigenvalues --   22.39775  22.53371  22.66469  22.66663  22.77310
 Alpha virt. eigenvalues --   22.86883  23.20008  23.47218  23.49260  23.64545
 Alpha virt. eigenvalues --   23.69558  23.85349  23.88876  23.92343  23.92603
 Alpha virt. eigenvalues --   23.98954  24.52010  24.70636  24.79283  24.99636
 Alpha virt. eigenvalues --   25.03853  25.12542  25.45166  25.56937  25.78649
 Alpha virt. eigenvalues --   25.87250  25.97675  26.32124  26.41369  26.43354
 Alpha virt. eigenvalues --   26.49087  26.56606  26.73126  26.88948  26.95390
 Alpha virt. eigenvalues --   27.05653  27.29769  27.38999  27.42891  27.72949
 Alpha virt. eigenvalues --   27.95202  28.01372  28.31857  28.32757  28.40379
 Alpha virt. eigenvalues --   28.58343  28.67123  29.16104  29.70528  30.04822
 Alpha virt. eigenvalues --   31.78497  32.10249  32.34008  32.45404  32.49428
 Alpha virt. eigenvalues --   32.72747  32.94748  33.42449  33.51482  33.91302
 Alpha virt. eigenvalues --   34.06806  34.11115  34.64281  34.73146  35.09938
 Alpha virt. eigenvalues --   35.39027  35.41716  35.85063  37.75937  38.18370
 Alpha virt. eigenvalues --   38.49286  39.38015  39.65206  39.70694  40.86838
 Alpha virt. eigenvalues --   41.34083 108.04187
          Condensed to atoms (all electrons):
               1          2          3
     1  O    7.819786   0.290993   0.290993
     2  H    0.290993   0.491211   0.016911
     3  H    0.290993   0.016911   0.491211
 Mulliken charges:
               1
     1  O   -0.401771
     2  H    0.200886
     3  H    0.200886
 Sum of Mulliken charges =  -0.00000
 Mulliken charges with hydrogens summed into heavy atoms:
               1
     1  O   -0.000000
 Electronic spatial extent (au):  <R**2>=             19.4814
 Charge=             -0.0000 electrons
 Dipole moment (field-independent basis, Debye):
    X=             -0.0000    Y=              0.0000    Z=             -1.9099  Tot=              1.9099
 Quadrupole moment (field-independent basis, Debye-Ang):
   XX=             -7.5461   YY=             -4.0101   ZZ=             -6.3839
   XY=              0.0000   XZ=              0.0000   YZ=             -0.0000
 Traceless Quadrupole moment (field-independent basis, Debye-Ang):
   XX=             -1.5661   YY=              1.9699   ZZ=             -0.4039
   XY=              0.0000   XZ=              0.0000   YZ=             -0.0000
 Octapole moment (field-independent basis, Debye-Ang**2):
  XXX=              0.0000  YYY=              0.0000  ZZZ=             -1.0764  XYY=             -0.0000
  XXY=              0.0000  XXZ=             -0.2616  XZZ=              0.0000  YZZ=              0.0000
  YYZ=             -1.4247  XYZ=             -0.0000
 Hexadecapole moment (field-independent basis, Debye-Ang**3):
 XXXX=             -6.6192 YYYY=             -5.7350 ZZZZ=             -7.1685 XXXY=             -0.0000
 XXXZ=             -0.0000 YYYX=              0.0000 YYYZ=             -0.0000 ZZZX=             -0.0000
 ZZZY=              0.0000 XXYY=             -2.4481 XXZZ=             -2.3428 YYZZ=             -1.8656
 XXYZ=              0.0000 YYXZ=              0.0000 ZZXY=             -0.0000
 N-N= 9.157175081768D+00 E-N=-1.989923868088D+02  KE= 7.598060803179D+01
 Symmetry A1   KE= 6.794495067019D+01
 Symmetry A2   KE=-4.422500894559D-22
 Symmetry B1   KE= 4.474465556302D+00
 Symmetry B2   KE= 3.561191805307D+00
 PrsmSu:  requested number of processors reduced to:   2 ShMem   1 Linda.
 Running external command "gaunbo6 R"
         input file       "/scr/ericg/h2o/Gau-19346.EIn"
         output file      "/scr/ericg/h2o/Gau-19346.EOu"
         message file     "/scr/ericg/h2o/Gau-19346.EMs"
         fchk file        "/scr/ericg/h2o/Gau-19346.EFC"
         mat. el file     "/scr/ericg/h2o/Gau-19346.EUF"

 Writing WrtUnf unformatted file "/scr/ericg/h2o/Gau-19346.EUF"
 Gaussian matrix elements                                         Version   2 NLab=11 Len12L=8 Len4L=8
 Write SHELL TO ATOM MAP                   from file     0 offset           0 length                  70 to matrix element file.
 Write SHELL TYPES                         from file     0 offset           0 length                  70 to matrix element file.
 Write NUMBER OF PRIMITIVES PER SHELL      from file     0 offset           0 length                  70 to matrix element file.
 Write PRIMITIVE EXPONENTS                 from file     0 offset           0 length                  97 to matrix element file.
 Write CONTRACTION COEFFICIENTS            from file     0 offset           0 length                  97 to matrix element file.
 Write P(S=P) CONTRACTION COEFFICIENTS     from file     0 offset           0 length                  97 to matrix element file.
 Write COORDINATES OF EACH SHELL           from file     0 offset           0 length                 210 to matrix element file.
 Write BONDS PER ATOM                      from file     0 offset           0 length                   3 to matrix element file.
 Write BONDED ATOMS                        from file     0 offset           0 length                   4 to matrix element file.
 Write BOND TYPES                          from file     0 offset           0 length                   4 to matrix element file.
 Write GAUSSIAN SCALARS                    from file   501 offset           0 to matrix element file.
 Write INTEGER ISO                         from file     0 offset           0 length                   3 to matrix element file.
 Write INTEGER SPIN                        from file     0 offset           0 length                   3 to matrix element file.
 Write REAL ZEFFECTIVE                     from file     0 offset           0 length                   3 to matrix element file.
 Write REAL GFACTOR                        from file     0 offset           0 length                   3 to matrix element file.
 Write REAL ZNUCLEAR                       from file     0 offset           0 length                   3 to matrix element file.
 Write MULLIKEN CHARGES                    from file     0 offset           0 length                   3 to matrix element file.
 Write NUCLEAR GRADIENT                    from file 10584 offset           0 length                   9 to matrix element file.
 Array NUCLEAR FORCE CONSTANTS              on  file 10585 does not exist.
 Write ELECTRIC DIPOLE MOMENT              from file     0 offset           0 length                   3 to matrix element file.
 Write NON-ADIABATIC COUPLING              from file 10810 offset           0 length                   9 to matrix element file.
 Write OVERLAP                             from file 10514 offset           0 length               52003 to matrix element file.
 Write CORE HAMILTONIAN ALPHA              from file 10515 offset           0 length               52003 to matrix element file.
 Write CORE HAMILTONIAN BETA               from file 10515 offset       52003 length               52003 to matrix element file.
 Write KINETIC ENERGY                      from file 10516 offset           0 length               52003 to matrix element file.
 Write ORTHOGONAL BASIS                    from file 10685 offset           0 length              103684 to matrix element file.
 Write DIPOLE INTEGRALS                    from file 10518 offset           0 length              156009 to matrix element file.
 Array DIP VEL INTEGRALS                    on  file 10572 does not exist.
 Array R X DEL INTEGRALS                    on  file 10572 does not exist.
 Write ALPHA ORBITAL ENERGIES              from file     0 offset           0 length                 322 to matrix element file.
 Write ALPHA MO COEFFICIENTS               from file 10524 offset           0 length              103684 to matrix element file.
 Write ALPHA DENSITY MATRIX                from file     0 offset           0 length               52003 to matrix element file.
 Write ALPHA SCF DENSITY MATRIX            from file 10528 offset           0 length               52003 to matrix element file.
 Write ALPHA FOCK MATRIX                   from file 10536 offset           0 length               52003 to matrix element file.
 Write ALPHA SCF DENSITY                   from file     0 offset           0 length               52003 to matrix element file.
 No 2e integrals to process.
 Perform NBO analysis...executing G16NBO...

 *********************************** NBO 7.0 ***********************************
             N A T U R A L   A T O M I C   O R B I T A L   A N D
          N A T U R A L   B O N D   O R B I T A L   A N A L Y S I S
 ************************ development version (D000000) ************************
  (c) Copyright 1996-2020 Board of Regents of the University of Wisconsin System
      on behalf of the Theoretical Chemistry Institute.  All rights reserved.

          Cite this program [NBO 7.0.9 (21-May-2020)] as:

          NBO 7.0.  E. D. Glendening, J. K. Badenhoop, A. E. Reed,
          J. E. Carpenter, J. A. Bohmann, C. M. Morales, P. Karafiloglou,
          C. R. Landis, and F. Weinhold, Theoretical Chemistry Institute,
          University of Wisconsin, Madison, WI (2018)

 Filename set to /scr/ericg/h2o/Gau-19346

 Job title: Water...rhf/cc-pV6Z//idealized


 NATURAL POPULATIONS:  Natural atomic orbital occupancies

  NAO Atom No lang   Type(AO)    Occupancy      Energy
 -------------------------------------------------------
   1    O  1  s      Cor( 1s)     2.00000     -20.56178
   2    O  1  s      Val( 2s)     1.74210      -1.03294
   3    O  1  s      Ryd( 4s)     0.00014      12.64763
   4    O  1  s      Ryd( 3s)     0.00000      12.53993
   5    O  1  s      Ryd( 5s)     0.00000      13.54992
   6    O  1  s      Ryd( 6s)     0.00000      28.43657
   7    O  1  s      Ryd( 7s)     0.00000      35.28759
   8    O  1  px     Val( 2p)     1.99229      -0.50140
   9    O  1  px     Ryd( 3p)     0.00053       0.90905
  10    O  1  px     Ryd( 4p)     0.00000       2.73709
  11    O  1  px     Ryd( 5p)     0.00000      11.57620
  12    O  1  px     Ryd( 6p)     0.00000      15.05050
  13    O  1  px     Ryd( 7p)     0.00000      13.50514
  14    O  1  py     Val( 2p)     1.44516      -0.33167
  15    O  1  py     Ryd( 3p)     0.00137       1.11405
  16    O  1  py     Ryd( 4p)     0.00000       6.65658
  17    O  1  py     Ryd( 5p)     0.00000      13.84297
  18    O  1  py     Ryd( 6p)     0.00000      16.10691
  19    O  1  py     Ryd( 7p)     0.00000      13.73923
  20    O  1  pz     Val( 2p)     1.73508      -0.42591
  21    O  1  pz     Ryd( 3p)     0.00010       1.05870
  22    O  1  pz     Ryd( 4p)     0.00020       3.08213
  23    O  1  pz     Ryd( 5p)     0.00000      13.97258
  24    O  1  pz     Ryd( 6p)     0.00000      19.05992
  25    O  1  pz     Ryd( 7p)     0.00000      24.08596
  26    O  1  dxy    Ryd( 3d)     0.00000       1.60861
  27    O  1  dxy    Ryd( 4d)     0.00000       4.79277
  28    O  1  dxy    Ryd( 5d)     0.00000       9.59804
  29    O  1  dxy    Ryd( 6d)     0.00000      17.80382
  30    O  1  dxy    Ryd( 7d)     0.00000      32.24180
  31    O  1  dxz    Ryd( 3d)     0.00435       1.49995
  32    O  1  dxz    Ryd( 4d)     0.00000       3.99799
  33    O  1  dxz    Ryd( 5d)     0.00000       9.16328
  34    O  1  dxz    Ryd( 6d)     0.00000      18.58188
  35    O  1  dxz    Ryd( 7d)     0.00000      31.20540
  36    O  1  dyz    Ryd( 3d)     0.00677       3.56772
  37    O  1  dyz    Ryd( 4d)     0.00000       6.45190
  38    O  1  dyz    Ryd( 5d)     0.00000      14.51127
  39    O  1  dyz    Ryd( 6d)     0.00000      20.90237
  40    O  1  dyz    Ryd( 7d)     0.00000      33.30994
  41    O  1  dx2y2  Ryd( 3d)     0.00168       2.48159
  42    O  1  dx2y2  Ryd( 4d)     0.00007       4.54657
  43    O  1  dx2y2  Ryd( 5d)     0.00000      11.42482
  44    O  1  dx2y2  Ryd( 6d)     0.00000      19.35403
  45    O  1  dx2y2  Ryd( 7d)     0.00000      34.21616
  46    O  1  dz2    Ryd( 3d)     0.00439       1.54771
  47    O  1  dz2    Ryd( 4d)     0.00000       5.03402
  48    O  1  dz2    Ryd( 5d)     0.00000      11.96647
  49    O  1  dz2    Ryd( 6d)     0.00000      18.58221
  50    O  1  dz2    Ryd( 7d)     0.00000      31.81933
  51    O  1  f(0)   Ryd( 4f)     0.00005       5.07053
  52    O  1  f(0)   Ryd( 5f)     0.00000       8.70014
  53    O  1  f(0)   Ryd( 6f)     0.00000      19.60224
  54    O  1  f(0)   Ryd( 7f)     0.00000      23.15926
  55    O  1  f(c1)  Ryd( 4f)     0.00005       3.89302
  56    O  1  f(c1)  Ryd( 5f)     0.00000       7.69120
  57    O  1  f(c1)  Ryd( 6f)     0.00000      17.49713
  58    O  1  f(c1)  Ryd( 7f)     0.00000      23.17287
  59    O  1  f(s1)  Ryd( 4f)     0.00000       7.43593
  60    O  1  f(s1)  Ryd( 5f)     0.00000      11.11077
  61    O  1  f(s1)  Ryd( 6f)     0.00000      21.74979
  62    O  1  f(s1)  Ryd( 7f)     0.00000      22.59182
  63    O  1  f(c2)  Ryd( 4f)     0.00049       6.40978
  64    O  1  f(c2)  Ryd( 5f)     0.00001       9.70769
  65    O  1  f(c2)  Ryd( 6f)     0.00000      21.96606
  66    O  1  f(c2)  Ryd( 7f)     0.00000      24.23443
  67    O  1  f(s2)  Ryd( 4f)     0.00000       5.41118
  68    O  1  f(s2)  Ryd( 5f)     0.00000       8.20445
  69    O  1  f(s2)  Ryd( 6f)     0.00000      21.65635
  70    O  1  f(s2)  Ryd( 7f)     0.00000      22.65171
  71    O  1  f(c3)  Ryd( 4f)     0.00064       4.83314
  72    O  1  f(c3)  Ryd( 5f)     0.00000       8.43947
  73    O  1  f(c3)  Ryd( 6f)     0.00000      20.76669
  74    O  1  f(c3)  Ryd( 7f)     0.00000      23.09741
  75    O  1  f(s3)  Ryd( 4f)     0.00031       5.35210
  76    O  1  f(s3)  Ryd( 5f)     0.00000       9.29205
  77    O  1  f(s3)  Ryd( 6f)     0.00000      22.77833
  78    O  1  f(s3)  Ryd( 7f)     0.00000      23.56946
  79    O  1  g(0)   Ryd( 5g)     0.00007       5.64734
  80    O  1  g(0)   Ryd( 6g)     0.00000      19.27546
  81    O  1  g(0)   Ryd( 7g)     0.00000      29.43032
  82    O  1  g(c1)  Ryd( 5g)     0.00000       5.19770
  83    O  1  g(c1)  Ryd( 6g)     0.00000      17.45332
  84    O  1  g(c1)  Ryd( 7g)     0.00000      29.22842
  85    O  1  g(s1)  Ryd( 5g)     0.00006       7.20720
  86    O  1  g(s1)  Ryd( 6g)     0.00000      24.34974
  87    O  1  g(s1)  Ryd( 7g)     0.00000      29.65160
  88    O  1  g(c2)  Ryd( 5g)     0.00019       6.22337
  89    O  1  g(c2)  Ryd( 6g)     0.00000      20.90733
  90    O  1  g(c2)  Ryd( 7g)     0.00000      29.70339
  91    O  1  g(s2)  Ryd( 5g)     0.00000       5.82962
  92    O  1  g(s2)  Ryd( 6g)     0.00000      22.06672
  93    O  1  g(s2)  Ryd( 7g)     0.00000      29.36252
  94    O  1  g(c3)  Ryd( 5g)     0.00011       6.51916
  95    O  1  g(c3)  Ryd( 6g)     0.00000      21.64920
  96    O  1  g(c3)  Ryd( 7g)     0.00000      29.63415
  97    O  1  g(s3)  Ryd( 5g)     0.00020       5.92056
  98    O  1  g(s3)  Ryd( 6g)     0.00000      20.29320
  99    O  1  g(s3)  Ryd( 7g)     0.00000      29.73589
 100    O  1  g(c4)  Ryd( 5g)     0.00001       5.74119
 101    O  1  g(c4)  Ryd( 6g)     0.00000      21.16372
 102    O  1  g(c4)  Ryd( 7g)     0.00000      29.46468
 103    O  1  g(s4)  Ryd( 5g)     0.00000       5.95344
 104    O  1  g(s4)  Ryd( 6g)     0.00000      20.96219
 105    O  1  g(s4)  Ryd( 7g)     0.00000      29.45141
 106    O  1  h(0)   Ryd( 6h)     0.00001      11.60373
 107    O  1  h(0)   Ryd( 7h)     0.00000      25.80587
 108    O  1  h(c1)  Ryd( 6h)     0.00000      10.98929
 109    O  1  h(c1)  Ryd( 7h)     0.00000      25.17510
 110    O  1  h(s1)  Ryd( 6h)     0.00004      12.60432
 111    O  1  h(s1)  Ryd( 7h)     0.00000      25.24054
 112    O  1  h(c2)  Ryd( 6h)     0.00002      11.62098
 113    O  1  h(c2)  Ryd( 7h)     0.00000      26.69220
 114    O  1  h(s2)  Ryd( 6h)     0.00000      12.16608
 115    O  1  h(s2)  Ryd( 7h)     0.00000      25.05592
 116    O  1  h(c3)  Ryd( 6h)     0.00002      11.91760
 117    O  1  h(c3)  Ryd( 7h)     0.00000      26.13468
 118    O  1  h(s3)  Ryd( 6h)     0.00004      11.75285
 119    O  1  h(s3)  Ryd( 7h)     0.00000      25.66187
 120    O  1  h(c4)  Ryd( 6h)     0.00003      11.61360
 121    O  1  h(c4)  Ryd( 7h)     0.00000      25.98779
 122    O  1  h(s4)  Ryd( 6h)     0.00000      11.75738
 123    O  1  h(s4)  Ryd( 7h)     0.00000      26.52813
 124    O  1  h(c5)  Ryd( 6h)     0.00001      11.75074
 125    O  1  h(c5)  Ryd( 7h)     0.00000      25.55201
 126    O  1  h(s5)  Ryd( 6h)     0.00001      11.80473
 127    O  1  h(s5)  Ryd( 7h)     0.00000      25.42037
 128    O  1  i(0)   Ryd( 7i)     0.00000      20.76252
 129    O  1  i(c1)  Ryd( 7i)     0.00000      20.53816
 130    O  1  i(s1)  Ryd( 7i)     0.00000      21.79469
 131    O  1  i(c2)  Ryd( 7i)     0.00000      20.88373
 132    O  1  i(s2)  Ryd( 7i)     0.00000      21.83563
 133    O  1  i(c3)  Ryd( 7i)     0.00000      21.17683
 134    O  1  i(s3)  Ryd( 7i)     0.00000      20.70892
 135    O  1  i(c4)  Ryd( 7i)     0.00000      21.61750
 136    O  1  i(s4)  Ryd( 7i)     0.00000      20.59690
 137    O  1  i(c5)  Ryd( 7i)     0.00000      20.55241
 138    O  1  i(s5)  Ryd( 7i)     0.00000      21.20454
 139    O  1  i(c6)  Ryd( 7i)     0.00000      21.23795
 140    O  1  i(s6)  Ryd( 7i)     0.00000      21.12881

 141    H  2  s      Val( 1s)     0.52753       0.29023
 142    H  2  s      Ryd( 2s)     0.00023       2.15030
 143    H  2  s      Ryd( 3s)     0.00016       2.21794
 144    H  2  s      Ryd( 5s)     0.00000       7.58716
 145    H  2  s      Ryd( 4s)     0.00000       5.45405
 146    H  2  s      Ryd( 6s)     0.00000      10.82193
 147    H  2  px     Ryd( 2p)     0.00009       2.35255
 148    H  2  px     Ryd( 3p)     0.00053       5.74918
 149    H  2  px     Ryd( 4p)     0.00000       6.51824
 150    H  2  px     Ryd( 5p)     0.00000      11.48930
 151    H  2  px     Ryd( 6p)     0.00000      28.04828
 152    H  2  py     Ryd( 2p)     0.00070       3.16854
 153    H  2  py     Ryd( 3p)     0.00010       6.95737
 154    H  2  py     Ryd( 4p)     0.00001       9.55464
 155    H  2  py     Ryd( 5p)     0.00000      13.13217
 156    H  2  py     Ryd( 6p)     0.00000      28.09538
 157    H  2  pz     Ryd( 2p)     0.00094       3.09149
 158    H  2  pz     Ryd( 3p)     0.00020       6.73757
 159    H  2  pz     Ryd( 4p)     0.00002       8.55717
 160    H  2  pz     Ryd( 5p)     0.00000      12.62538
 161    H  2  pz     Ryd( 6p)     0.00000      27.51231
 162    H  2  dxy    Ryd( 3d)     0.00011       5.32268
 163    H  2  dxy    Ryd( 4d)     0.00000       6.57698
 164    H  2  dxy    Ryd( 5d)     0.00000      12.32486
 165    H  2  dxy    Ryd( 6d)     0.00000      20.26629
 166    H  2  dxz    Ryd( 3d)     0.00019       4.45744
 167    H  2  dxz    Ryd( 4d)     0.00002       5.62764
 168    H  2  dxz    Ryd( 5d)     0.00000      10.98064
 169    H  2  dxz    Ryd( 6d)     0.00000      20.79765
 170    H  2  dyz    Ryd( 3d)     0.00003       5.33897
 171    H  2  dyz    Ryd( 4d)     0.00018       4.99888
 172    H  2  dyz    Ryd( 5d)     0.00000      17.87172
 173    H  2  dyz    Ryd( 6d)     0.00000      21.57292
 174    H  2  dx2y2  Ryd( 3d)     0.00004       5.01772
 175    H  2  dx2y2  Ryd( 4d)     0.00008       5.41102
 176    H  2  dx2y2  Ryd( 5d)     0.00000      12.63806
 177    H  2  dx2y2  Ryd( 6d)     0.00000      21.00250
 178    H  2  dz2    Ryd( 3d)     0.00021       5.57338
 179    H  2  dz2    Ryd( 4d)     0.00001       6.70238
 180    H  2  dz2    Ryd( 5d)     0.00000      13.94826
 181    H  2  dz2    Ryd( 6d)     0.00000      20.66193
 182    H  2  f(0)   Ryd( 4f)     0.00003       7.24732
 183    H  2  f(0)   Ryd( 5f)     0.00000       9.69091
 184    H  2  f(0)   Ryd( 6f)     0.00000      23.09031
 185    H  2  f(c1)  Ryd( 4f)     0.00000       7.00330
 186    H  2  f(c1)  Ryd( 5f)     0.00000       9.12583
 187    H  2  f(c1)  Ryd( 6f)     0.00000      22.72698
 188    H  2  f(s1)  Ryd( 4f)     0.00002       6.14420
 189    H  2  f(s1)  Ryd( 5f)     0.00001       9.56337
 190    H  2  f(s1)  Ryd( 6f)     0.00000      24.62694
 191    H  2  f(c2)  Ryd( 4f)     0.00009       5.96797
 192    H  2  f(c2)  Ryd( 5f)     0.00000       9.45568
 193    H  2  f(c2)  Ryd( 6f)     0.00000      23.49293
 194    H  2  f(s2)  Ryd( 4f)     0.00000       5.93327
 195    H  2  f(s2)  Ryd( 5f)     0.00001       9.20286
 196    H  2  f(s2)  Ryd( 6f)     0.00000      23.84868
 197    H  2  f(c3)  Ryd( 4f)     0.00000       6.61950
 198    H  2  f(c3)  Ryd( 5f)     0.00000       9.65229
 199    H  2  f(c3)  Ryd( 6f)     0.00000      23.45952
 200    H  2  f(s3)  Ryd( 4f)     0.00004       6.96524
 201    H  2  f(s3)  Ryd( 5f)     0.00000       9.86647
 202    H  2  f(s3)  Ryd( 6f)     0.00000      23.14282
 203    H  2  g(0)   Ryd( 5g)     0.00000       8.40231
 204    H  2  g(0)   Ryd( 6g)     0.00000      20.41229
 205    H  2  g(c1)  Ryd( 5g)     0.00000       8.08673
 206    H  2  g(c1)  Ryd( 6g)     0.00000      20.34807
 207    H  2  g(s1)  Ryd( 5g)     0.00001       8.00051
 208    H  2  g(s1)  Ryd( 6g)     0.00000      20.39818
 209    H  2  g(c2)  Ryd( 5g)     0.00001       7.97152
 210    H  2  g(c2)  Ryd( 6g)     0.00000      20.06668
 211    H  2  g(s2)  Ryd( 5g)     0.00000       8.14136
 212    H  2  g(s2)  Ryd( 6g)     0.00000      20.27902
 213    H  2  g(c3)  Ryd( 5g)     0.00002       7.42141
 214    H  2  g(c3)  Ryd( 6g)     0.00000      19.97067
 215    H  2  g(s3)  Ryd( 5g)     0.00001       8.32189
 216    H  2  g(s3)  Ryd( 6g)     0.00000      20.06778
 217    H  2  g(c4)  Ryd( 5g)     0.00000       8.37653
 218    H  2  g(c4)  Ryd( 6g)     0.00000      20.26267
 219    H  2  g(s4)  Ryd( 5g)     0.00001       8.06020
 220    H  2  g(s4)  Ryd( 6g)     0.00000      20.30424
 221    H  2  h(0)   Ryd( 6h)     0.00000      18.15128
 222    H  2  h(c1)  Ryd( 6h)     0.00000      17.95313
 223    H  2  h(s1)  Ryd( 6h)     0.00000      17.53938
 224    H  2  h(c2)  Ryd( 6h)     0.00000      17.52394
 225    H  2  h(s2)  Ryd( 6h)     0.00000      17.57930
 226    H  2  h(c3)  Ryd( 6h)     0.00000      17.18715
 227    H  2  h(s3)  Ryd( 6h)     0.00000      18.10088
 228    H  2  h(c4)  Ryd( 6h)     0.00000      17.54022
 229    H  2  h(s4)  Ryd( 6h)     0.00000      17.29340
 230    H  2  h(c5)  Ryd( 6h)     0.00000      17.78770
 231    H  2  h(s5)  Ryd( 6h)     0.00000      17.83836

 232    H  3  s      Val( 1s)     0.52753       0.29023
 233    H  3  s      Ryd( 2s)     0.00023       2.15030
 234    H  3  s      Ryd( 3s)     0.00016       2.21794
 235    H  3  s      Ryd( 5s)     0.00000       7.58718
 236    H  3  s      Ryd( 6s)     0.00000      11.77571
 237    H  3  s      Ryd( 4s)     0.00000       4.50025
 238    H  3  px     Ryd( 2p)     0.00009       2.35255
 239    H  3  px     Ryd( 3p)     0.00053       5.74918
 240    H  3  px     Ryd( 4p)     0.00000       6.51824
 241    H  3  px     Ryd( 5p)     0.00000      11.48930
 242    H  3  px     Ryd( 6p)     0.00000      28.04828
 243    H  3  py     Ryd( 2p)     0.00070       3.16854
 244    H  3  py     Ryd( 3p)     0.00010       6.95737
 245    H  3  py     Ryd( 4p)     0.00001       9.55464
 246    H  3  py     Ryd( 5p)     0.00000      13.13217
 247    H  3  py     Ryd( 6p)     0.00000      28.09538
 248    H  3  pz     Ryd( 2p)     0.00094       3.09149
 249    H  3  pz     Ryd( 3p)     0.00020       6.73757
 250    H  3  pz     Ryd( 4p)     0.00002       8.55717
 251    H  3  pz     Ryd( 5p)     0.00000      12.62538
 252    H  3  pz     Ryd( 6p)     0.00000      27.51231
 253    H  3  dxy    Ryd( 3d)     0.00011       5.32268
 254    H  3  dxy    Ryd( 4d)     0.00000       6.57698
 255    H  3  dxy    Ryd( 5d)     0.00000      12.32486
 256    H  3  dxy    Ryd( 6d)     0.00000      20.26629
 257    H  3  dxz    Ryd( 3d)     0.00019       4.45744
 258    H  3  dxz    Ryd( 4d)     0.00002       5.62764
 259    H  3  dxz    Ryd( 5d)     0.00000      10.98064
 260    H  3  dxz    Ryd( 6d)     0.00000      20.79765
 261    H  3  dyz    Ryd( 3d)     0.00003       5.33897
 262    H  3  dyz    Ryd( 4d)     0.00018       4.99888
 263    H  3  dyz    Ryd( 5d)     0.00000      17.87172
 264    H  3  dyz    Ryd( 6d)     0.00000      21.57292
 265    H  3  dx2y2  Ryd( 3d)     0.00004       5.01772
 266    H  3  dx2y2  Ryd( 4d)     0.00008       5.41102
 267    H  3  dx2y2  Ryd( 5d)     0.00000      12.63806
 268    H  3  dx2y2  Ryd( 6d)     0.00000      21.00250
 269    H  3  dz2    Ryd( 3d)     0.00021       5.57338
 270    H  3  dz2    Ryd( 4d)     0.00001       6.70238
 271    H  3  dz2    Ryd( 5d)     0.00000      13.94826
 272    H  3  dz2    Ryd( 6d)     0.00000      20.66193
 273    H  3  f(0)   Ryd( 4f)     0.00003       7.24732
 274    H  3  f(0)   Ryd( 5f)     0.00000       9.69091
 275    H  3  f(0)   Ryd( 6f)     0.00000      23.09031
 276    H  3  f(c1)  Ryd( 4f)     0.00000       7.00330
 277    H  3  f(c1)  Ryd( 5f)     0.00000       9.12583
 278    H  3  f(c1)  Ryd( 6f)     0.00000      22.72698
 279    H  3  f(s1)  Ryd( 4f)     0.00002       6.14420
 280    H  3  f(s1)  Ryd( 5f)     0.00001       9.56337
 281    H  3  f(s1)  Ryd( 6f)     0.00000      24.62694
 282    H  3  f(c2)  Ryd( 4f)     0.00009       5.96797
 283    H  3  f(c2)  Ryd( 5f)     0.00000       9.45568
 284    H  3  f(c2)  Ryd( 6f)     0.00000      23.49293
 285    H  3  f(s2)  Ryd( 4f)     0.00000       5.93327
 286    H  3  f(s2)  Ryd( 5f)     0.00001       9.20286
 287    H  3  f(s2)  Ryd( 6f)     0.00000      23.84868
 288    H  3  f(c3)  Ryd( 4f)     0.00000       6.61950
 289    H  3  f(c3)  Ryd( 5f)     0.00000       9.65229
 290    H  3  f(c3)  Ryd( 6f)     0.00000      23.45952
 291    H  3  f(s3)  Ryd( 4f)     0.00004       6.96524
 292    H  3  f(s3)  Ryd( 5f)     0.00000       9.86647
 293    H  3  f(s3)  Ryd( 6f)     0.00000      23.14282
 294    H  3  g(0)   Ryd( 5g)     0.00000       8.40231
 295    H  3  g(0)   Ryd( 6g)     0.00000      20.41229
 296    H  3  g(c1)  Ryd( 5g)     0.00000       8.08673
 297    H  3  g(c1)  Ryd( 6g)     0.00000      20.34807
 298    H  3  g(s1)  Ryd( 5g)     0.00001       8.00051
 299    H  3  g(s1)  Ryd( 6g)     0.00000      20.39818
 300    H  3  g(c2)  Ryd( 5g)     0.00001       7.97152
 301    H  3  g(c2)  Ryd( 6g)     0.00000      20.06668
 302    H  3  g(s2)  Ryd( 5g)     0.00000       8.14136
 303    H  3  g(s2)  Ryd( 6g)     0.00000      20.27902
 304    H  3  g(c3)  Ryd( 5g)     0.00002       7.42141
 305    H  3  g(c3)  Ryd( 6g)     0.00000      19.97067
 306    H  3  g(s3)  Ryd( 5g)     0.00001       8.32189
 307    H  3  g(s3)  Ryd( 6g)     0.00000      20.06778
 308    H  3  g(c4)  Ryd( 5g)     0.00000       8.37653
 309    H  3  g(c4)  Ryd( 6g)     0.00000      20.26267
 310    H  3  g(s4)  Ryd( 5g)     0.00001       8.06020
 311    H  3  g(s4)  Ryd( 6g)     0.00000      20.30424
 312    H  3  h(0)   Ryd( 6h)     0.00000      18.15128
 313    H  3  h(c1)  Ryd( 6h)     0.00000      17.95313
 314    H  3  h(s1)  Ryd( 6h)     0.00000      17.53938
 315    H  3  h(c2)  Ryd( 6h)     0.00000      17.52394
 316    H  3  h(s2)  Ryd( 6h)     0.00000      17.57930
 317    H  3  h(c3)  Ryd( 6h)     0.00000      17.18715
 318    H  3  h(s3)  Ryd( 6h)     0.00000      18.10088
 319    H  3  h(c4)  Ryd( 6h)     0.00000      17.54022
 320    H  3  h(s4)  Ryd( 6h)     0.00000      17.29340
 321    H  3  h(c5)  Ryd( 6h)     0.00000      17.78770
 322    H  3  h(s5)  Ryd( 6h)     0.00000      17.83836


 Summary of Natural Population Analysis:

                                     Natural Population
             Natural    ---------------------------------------------
  Atom No    Charge        Core      Valence    Rydberg      Total
 --------------------------------------------------------------------
    O  1   -0.93664      2.00000     6.91464    0.02199     8.93664
    H  2    0.46832      0.00000     0.52753    0.00415     0.53168
    H  3    0.46832      0.00000     0.52753    0.00415     0.53168
 ====================================================================
 * Total *  0.00000      2.00000     7.96970    0.03030    10.00000

                                 Natural Population
 ---------------------------------------------------------
   Core                       2.00000 ( 99.9999% of    2)
   Valence                    7.96970 ( 99.6213% of    8)
   Natural Minimal Basis      9.96970 ( 99.6970% of   10)
   Natural Rydberg Basis      0.03030 (  0.3030% of   10)
 ---------------------------------------------------------

    Atom No         Natural Electron Configuration
 ----------------------------------------------------------------------------
      O  1      [core]2s( 1.74)2p( 5.17)3d( 0.02)
      H  2            1s( 0.53)
      H  3            1s( 0.53)


 NATURAL BOND ORBITAL ANALYSIS:

                            Occupancies       Lewis Structure    Low   High
         Max    Occ     -------------------  -----------------   occ   occ
  Cycle  Ctr   Thresh    Lewis   non-Lewis     CR  BD  nC  LP    (L)   (NL)
 ============================================================================
    1     2     1.90     9.99549   0.00451      1   2   0   2     0      0
 ----------------------------------------------------------------------------

 Structure accepted: No low occupancy Lewis orbitals

 -------------------------------------------------------
   Core                      2.00000 (100.000% of   2)
   Valence Lewis             7.99549 ( 99.944% of   8)
  ==================      =============================
   Total Lewis               9.99549 ( 99.955% of  10)
  -----------------------------------------------------
   Valence non-Lewis         0.00033 (  0.003% of  10)
   Rydberg non-Lewis         0.00418 (  0.042% of  10)
  ==================      =============================
   Total non-Lewis           0.00451 (  0.045% of  10)
 -------------------------------------------------------


     (Occupancy)   Bond orbital / Coefficients / Hybrids
 ------------------ Lewis ------------------------------------------------------
   1. (2.00000) CR ( 1) O  1            s(100.00%)
                                         1.0000  0.0000  0.0000  0.0000  0.0000
                                         0.0000  0.0000  0.0000  0.0000  0.0000
                                         0.0000  0.0000  0.0000  0.0000  0.0000
                                         0.0000  0.0000  0.0000  0.0000  0.0000
                                         0.0000  0.0000  0.0000  0.0000  0.0000
                                         0.0000  0.0000  0.0000  0.0000  0.0000
                                         0.0000  0.0000  0.0000  0.0000  0.0000
                                         0.0000  0.0000  0.0000  0.0000  0.0000
                                         0.0000  0.0000  0.0000  0.0000  0.0000
                                         0.0000  0.0000  0.0000  0.0000  0.0000
                                         0.0000  0.0000  0.0000  0.0000  0.0000
                                         0.0000  0.0000  0.0000  0.0000  0.0000
                                         0.0000  0.0000  0.0000  0.0000  0.0000
                                         0.0000  0.0000  0.0000  0.0000  0.0000
                                         0.0000  0.0000  0.0000  0.0000  0.0000
                                         0.0000  0.0000  0.0000  0.0000  0.0000
                                         0.0000  0.0000  0.0000  0.0000  0.0000
                                         0.0000  0.0000  0.0000  0.0000  0.0000
                                         0.0000  0.0000  0.0000  0.0000  0.0000
                                         0.0000  0.0000  0.0000  0.0000  0.0000
                                         0.0000  0.0000  0.0000  0.0000  0.0000
                                         0.0000  0.0000  0.0000  0.0000  0.0000
                                         0.0000  0.0000  0.0000  0.0000  0.0000
                                         0.0000  0.0000  0.0000  0.0000  0.0000
                                         0.0000  0.0000  0.0000  0.0000  0.0000
                                         0.0000  0.0000  0.0000  0.0000  0.0000
                                         0.0000  0.0000  0.0000  0.0000  0.0000
                                         0.0000  0.0000  0.0000  0.0000  0.0000
   2. (1.99875) LP ( 1) O  1            s( 50.28%)p 0.99( 49.57%)d 0.00(  0.14%)
                                                  f 0.00(  0.00%)g 0.00(  0.00%)
                                                  h 0.00(  0.00%)i 0.00(  0.00%)
                                         0.0000  0.7091  0.0055  0.0000  0.0000
                                         0.0000  0.0000  0.0000  0.0000  0.0000
                                         0.0000  0.0000  0.0000  0.0000  0.0000
                                         0.0000  0.0000  0.0000  0.0000  0.7040
                                        -0.0067 -0.0067 -0.0005 -0.0001  0.0000
                                         0.0000  0.0000  0.0000  0.0000  0.0000
                                         0.0000  0.0000  0.0000  0.0000  0.0000
                                         0.0000  0.0000  0.0000  0.0000  0.0000
                                        -0.0060 -0.0045 -0.0001 -0.0003  0.0000
                                        -0.0371  0.0006  0.0000  0.0000  0.0000
                                         0.0042  0.0003  0.0001  0.0000  0.0000
                                         0.0000  0.0000  0.0000  0.0000  0.0000
                                         0.0000  0.0000 -0.0033  0.0018  0.0001
                                         0.0000  0.0000  0.0000  0.0000  0.0000
                                         0.0000  0.0000  0.0000  0.0000  0.0000
                                         0.0000  0.0000  0.0000  0.0025  0.0000
                                         0.0000  0.0000  0.0000  0.0000  0.0000
                                         0.0000  0.0000  0.0050 -0.0001  0.0001
                                         0.0000  0.0000  0.0000  0.0000  0.0000
                                         0.0000  0.0000  0.0000  0.0000  0.0007
                                         0.0000  0.0000  0.0000  0.0000  0.0000
                                        -0.0016  0.0000  0.0000  0.0000  0.0000
                                         0.0000 -0.0022  0.0000  0.0000  0.0000
                                         0.0000  0.0000  0.0000  0.0000 -0.0001
                                         0.0001  0.0000  0.0000  0.0000  0.0000
                                         0.0000  0.0000  0.0003  0.0000  0.0000
                                         0.0004  0.0000  0.0000  0.0000  0.0001
                                         0.0000  0.0000  0.0000 -0.0002  0.0000
   3. (1.99800) LP ( 2) O  1            s(  0.00%)p 1.00( 99.74%)d 0.00(  0.22%)
                                                  f 0.00(  0.03%)g 0.00(  0.01%)
                                                  h 0.00(  0.00%)i 0.00(  0.00%)
                                         0.0000  0.0000  0.0000  0.0000  0.0000
                                         0.0000  0.0000  0.9986 -0.0162  0.0009
                                         0.0005  0.0001  0.0000  0.0000  0.0000
                                         0.0000  0.0000  0.0000  0.0000  0.0000
                                         0.0000  0.0000  0.0000  0.0000  0.0000
                                         0.0000  0.0000  0.0000  0.0000  0.0000
                                        -0.0467  0.0009  0.0000 -0.0001  0.0000
                                         0.0000  0.0000  0.0000  0.0000  0.0000
                                         0.0000  0.0000  0.0000  0.0000  0.0000
                                         0.0000  0.0000  0.0000  0.0000  0.0000
                                         0.0000  0.0000  0.0000  0.0000  0.0051
                                        -0.0007  0.0001  0.0000  0.0000  0.0000
                                         0.0000  0.0000  0.0000  0.0000  0.0000
                                         0.0000  0.0000  0.0000  0.0000  0.0000
                                        -0.0178  0.0010  0.0001  0.0001  0.0000
                                         0.0000  0.0000  0.0000  0.0000  0.0000
                                         0.0000  0.0008 -0.0001  0.0000  0.0000
                                         0.0000  0.0000  0.0000  0.0000  0.0000
                                         0.0000  0.0000  0.0000  0.0076 -0.0002
                                         0.0000  0.0000  0.0000  0.0000  0.0000
                                         0.0000  0.0000  0.0000  0.0000  0.0000
                                         0.0000  0.0000 -0.0009  0.0000  0.0000
                                         0.0000  0.0000  0.0000  0.0000  0.0000
                                        -0.0028  0.0000  0.0000  0.0000  0.0000
                                         0.0000  0.0000  0.0000  0.0019 -0.0001
                                         0.0000  0.0000  0.0000  0.0001  0.0000
                                         0.0000  0.0000  0.0002  0.0000  0.0000
                                         0.0000 -0.0009  0.0000  0.0000  0.0000
   4. (1.99937) BD ( 1) O  1- H  2
               ( 73.52%)   0.8574* O  1 s( 24.81%)p 3.01( 74.80%)d 0.01(  0.34%)
                                                  f 0.00(  0.03%)g 0.00(  0.02%)
                                                  h 0.00(  0.00%)i 0.00(  0.00%)
                                         0.0000  0.4981 -0.0053  0.0000  0.0000
                                         0.0000  0.0000  0.0000  0.0000  0.0000
                                         0.0000  0.0000  0.0000  0.7050  0.0217
                                        -0.0005 -0.0001  0.0000  0.0000 -0.5005
                                         0.0017 -0.0059  0.0004  0.0001  0.0000
                                         0.0000  0.0000  0.0000  0.0000  0.0000
                                         0.0000  0.0000  0.0000  0.0000  0.0000
                                        -0.0483  0.0004 -0.0005  0.0001  0.0000
                                        -0.0232 -0.0030  0.0003  0.0002  0.0000
                                         0.0235 -0.0011 -0.0006  0.0001  0.0000
                                         0.0025  0.0010 -0.0001  0.0000  0.0000
                                         0.0000  0.0000  0.0000  0.0002 -0.0003
                                         0.0003  0.0000  0.0126  0.0015  0.0000
                                         0.0000  0.0000  0.0000  0.0000  0.0000
                                         0.0000  0.0000  0.0000  0.0000 -0.0103
                                         0.0003  0.0000 -0.0001 -0.0044  0.0000
                                         0.0001  0.0000  0.0000  0.0000  0.0047
                                         0.0001  0.0000 -0.0068  0.0000  0.0001
                                         0.0000  0.0000  0.0000  0.0000  0.0000
                                         0.0000  0.0083  0.0000  0.0001  0.0021
                                         0.0001  0.0000  0.0000  0.0000  0.0000
                                         0.0017  0.0000  0.0000  0.0000 -0.0039
                                        -0.0001  0.0015  0.0000  0.0000  0.0000
                                         0.0000  0.0000 -0.0035  0.0000 -0.0032
                                         0.0000  0.0000  0.0000  0.0000  0.0000
                                         0.0019 -0.0001  0.0001  0.0000  0.0002
                                         0.0004  0.0000  0.0000  0.0000  0.0010
                                         0.0000  0.0000 -0.0005 -0.0002  0.0000
               ( 26.48%)   0.5146* H  2 s( 99.61%)p 0.00(  0.29%)d 0.00(  0.06%)
                                                  f 0.00(  0.03%)g 0.00(  0.00%)
                                                  h 0.00(  0.00%)
                                         0.9981 -0.0006 -0.0002  0.0000  0.0000
                                         0.0000  0.0000  0.0000  0.0000  0.0000
                                         0.0000  0.0362 -0.0129 -0.0041 -0.0004
                                         0.0001 -0.0376  0.0030 -0.0016 -0.0002
                                         0.0001  0.0000  0.0000  0.0000  0.0000
                                         0.0000  0.0000  0.0000  0.0000 -0.0065
                                        -0.0185 -0.0006  0.0001 -0.0083 -0.0115
                                        -0.0007 -0.0002  0.0019 -0.0001 -0.0007
                                         0.0001 -0.0068 -0.0007  0.0001  0.0000
                                         0.0000  0.0000 -0.0047 -0.0010 -0.0001
                                        -0.0127 -0.0014  0.0000  0.0000  0.0000
                                         0.0000  0.0000  0.0000  0.0000  0.0088
                                        -0.0005  0.0000 -0.0023 -0.0004  0.0000
                                         0.0000  0.0029 -0.0003 -0.0024 -0.0007
                                         0.0000  0.0000  0.0000  0.0000  0.0046
                                         0.0005  0.0028  0.0001  0.0000  0.0000
                                        -0.0002  0.0000  0.0011  0.0001  0.0000
                                         0.0000  0.0011  0.0013  0.0000  0.0000
                                        -0.0007
   5. (1.99937) BD ( 1) O  1- H  3
               ( 73.52%)   0.8574* O  1 s( 24.81%)p 3.01( 74.80%)d 0.01(  0.34%)
                                                  f 0.00(  0.03%)g 0.00(  0.02%)
                                                  h 0.00(  0.00%)i 0.00(  0.00%)
                                         0.0000  0.4981 -0.0053  0.0000  0.0000
                                         0.0000  0.0000  0.0000  0.0000  0.0000
                                         0.0000  0.0000  0.0000 -0.7050 -0.0217
                                         0.0005  0.0001  0.0000  0.0000 -0.5005
                                         0.0017 -0.0059  0.0004  0.0001  0.0000
                                         0.0000  0.0000  0.0000  0.0000  0.0000
                                         0.0000  0.0000  0.0000  0.0000  0.0000
                                         0.0483 -0.0004  0.0005 -0.0001  0.0000
                                        -0.0232 -0.0030  0.0003  0.0002  0.0000
                                         0.0235 -0.0011 -0.0006  0.0001  0.0000
                                         0.0025  0.0010 -0.0001  0.0000  0.0000
                                         0.0000  0.0000  0.0000 -0.0002  0.0003
                                        -0.0003  0.0000  0.0126  0.0015  0.0000
                                         0.0000  0.0000  0.0000  0.0000  0.0000
                                         0.0000  0.0000  0.0000  0.0000  0.0103
                                        -0.0003  0.0000  0.0001 -0.0044  0.0000
                                         0.0001  0.0000  0.0000  0.0000 -0.0047
                                        -0.0001  0.0000 -0.0068  0.0000  0.0001
                                         0.0000  0.0000  0.0000  0.0000  0.0000
                                         0.0000 -0.0083  0.0000 -0.0001  0.0021
                                         0.0001  0.0000  0.0000  0.0000  0.0000
                                         0.0017  0.0000  0.0000  0.0000  0.0039
                                         0.0001  0.0015  0.0000  0.0000  0.0000
                                         0.0000  0.0000  0.0035  0.0000 -0.0032
                                         0.0000  0.0000  0.0000  0.0000  0.0000
                                        -0.0019  0.0001  0.0001  0.0000 -0.0002
                                         0.0004  0.0000  0.0000  0.0000  0.0010
                                         0.0000  0.0000  0.0005 -0.0002  0.0000
               ( 26.48%)   0.5146* H  3 s( 99.61%)p 0.00(  0.29%)d 0.00(  0.06%)
                                                  f 0.00(  0.03%)g 0.00(  0.00%)
                                                  h 0.00(  0.00%)
                                         0.9981 -0.0006 -0.0002  0.0000  0.0000
                                         0.0000  0.0000  0.0000  0.0000  0.0000
                                         0.0000 -0.0362  0.0129  0.0041  0.0004
                                        -0.0001 -0.0376  0.0030 -0.0016 -0.0002
                                         0.0001  0.0000  0.0000  0.0000  0.0000
                                         0.0000  0.0000  0.0000  0.0000  0.0065
                                         0.0185  0.0006 -0.0001 -0.0083 -0.0115
                                        -0.0007 -0.0002  0.0019 -0.0001 -0.0007
                                         0.0001 -0.0068 -0.0007  0.0001  0.0000
                                         0.0000  0.0000  0.0047  0.0010  0.0001
                                        -0.0127 -0.0014  0.0000  0.0000  0.0000
                                         0.0000  0.0000  0.0000  0.0000 -0.0088
                                         0.0005  0.0000 -0.0023 -0.0004  0.0000
                                         0.0000 -0.0029  0.0003 -0.0024 -0.0007
                                         0.0000  0.0000  0.0000  0.0000 -0.0046
                                        -0.0005  0.0028  0.0001  0.0000  0.0000
                                        -0.0002  0.0000 -0.0011  0.0001  0.0000
                                         0.0000 -0.0011  0.0013  0.0000  0.0000
                                         0.0007
 ---------------- non-Lewis ----------------------------------------------------
   6. (0.00016) BD*( 1) O  1- H  2
               ( 26.48%)   0.5146* O  1 s( 24.81%)p 3.01( 74.80%)d 0.01(  0.34%)
                                                  f 0.00(  0.03%)g 0.00(  0.02%)
                                                  h 0.00(  0.00%)i 0.00(  0.00%)
                                         0.0000 -0.4981  0.0053  0.0000  0.0000
                                         0.0000  0.0000  0.0000  0.0000  0.0000
                                         0.0000  0.0000  0.0000 -0.7050 -0.0217
                                         0.0005  0.0001  0.0000  0.0000  0.5005
                                        -0.0017  0.0059 -0.0004 -0.0001  0.0000
                                         0.0000  0.0000  0.0000  0.0000  0.0000
                                         0.0000  0.0000  0.0000  0.0000  0.0000
                                         0.0483 -0.0004  0.0005 -0.0001  0.0000
                                         0.0232  0.0030 -0.0003 -0.0002  0.0000
                                        -0.0235  0.0011  0.0006 -0.0001  0.0000
                                        -0.0025 -0.0010  0.0001  0.0000  0.0000
                                         0.0000  0.0000  0.0000 -0.0002  0.0003
                                        -0.0003  0.0000 -0.0126 -0.0015  0.0000
                                         0.0000  0.0000  0.0000  0.0000  0.0000
                                         0.0000  0.0000  0.0000  0.0000  0.0103
                                        -0.0003  0.0000  0.0001  0.0044  0.0000
                                        -0.0001  0.0000  0.0000  0.0000 -0.0047
                                        -0.0001  0.0000  0.0068  0.0000 -0.0001
                                         0.0000  0.0000  0.0000  0.0000  0.0000
                                         0.0000 -0.0083  0.0000 -0.0001 -0.0021
                                        -0.0001  0.0000  0.0000  0.0000  0.0000
                                        -0.0017  0.0000  0.0000  0.0000  0.0039
                                         0.0001 -0.0015  0.0000  0.0000  0.0000
                                         0.0000  0.0000  0.0035  0.0000  0.0032
                                         0.0000  0.0000  0.0000  0.0000  0.0000
                                        -0.0019  0.0001 -0.0001  0.0000 -0.0002
                                        -0.0004  0.0000  0.0000  0.0000 -0.0010
                                         0.0000  0.0000  0.0005  0.0002  0.0000
               ( 73.52%)  -0.8574* H  2 s( 99.61%)p 0.00(  0.29%)d 0.00(  0.06%)
                                                  f 0.00(  0.03%)g 0.00(  0.00%)
                                                  h 0.00(  0.00%)
                                        -0.9981  0.0006  0.0002  0.0000  0.0000
                                         0.0000  0.0000  0.0000  0.0000  0.0000
                                         0.0000 -0.0362  0.0129  0.0041  0.0004
                                        -0.0001  0.0376 -0.0030  0.0016  0.0002
                                        -0.0001  0.0000  0.0000  0.0000  0.0000
                                         0.0000  0.0000  0.0000  0.0000  0.0065
                                         0.0185  0.0006 -0.0001  0.0083  0.0115
                                         0.0007  0.0002 -0.0019  0.0001  0.0007
                                        -0.0001  0.0068  0.0007 -0.0001  0.0000
                                         0.0000  0.0000  0.0047  0.0010  0.0001
                                         0.0127  0.0014  0.0000  0.0000  0.0000
                                         0.0000  0.0000  0.0000  0.0000 -0.0088
                                         0.0005  0.0000  0.0023  0.0004  0.0000
                                         0.0000 -0.0029  0.0003  0.0024  0.0007
                                         0.0000  0.0000  0.0000  0.0000 -0.0046
                                        -0.0005 -0.0028 -0.0001  0.0000  0.0000
                                         0.0002  0.0000 -0.0011 -0.0001  0.0000
                                         0.0000 -0.0011 -0.0013  0.0000  0.0000
                                         0.0007
   7. (0.00016) BD*( 1) O  1- H  3
               ( 26.48%)   0.5146* O  1 s( 24.81%)p 3.01( 74.80%)d 0.01(  0.34%)
                                                  f 0.00(  0.03%)g 0.00(  0.02%)
                                                  h 0.00(  0.00%)i 0.00(  0.00%)
                                         0.0000 -0.4981  0.0053  0.0000  0.0000
                                         0.0000  0.0000  0.0000  0.0000  0.0000
                                         0.0000  0.0000  0.0000  0.7050  0.0217
                                        -0.0005 -0.0001  0.0000  0.0000  0.5005
                                        -0.0017  0.0059 -0.0004 -0.0001  0.0000
                                         0.0000  0.0000  0.0000  0.0000  0.0000
                                         0.0000  0.0000  0.0000  0.0000  0.0000
                                        -0.0483  0.0004 -0.0005  0.0001  0.0000
                                         0.0232  0.0030 -0.0003 -0.0002  0.0000
                                        -0.0235  0.0011  0.0006 -0.0001  0.0000
                                        -0.0025 -0.0010  0.0001  0.0000  0.0000
                                         0.0000  0.0000  0.0000  0.0002 -0.0003
                                         0.0003  0.0000 -0.0126 -0.0015  0.0000
                                         0.0000  0.0000  0.0000  0.0000  0.0000
                                         0.0000  0.0000  0.0000  0.0000 -0.0103
                                         0.0003  0.0000 -0.0001  0.0044  0.0000
                                        -0.0001  0.0000  0.0000  0.0000  0.0047
                                         0.0001  0.0000  0.0068  0.0000 -0.0001
                                         0.0000  0.0000  0.0000  0.0000  0.0000
                                         0.0000  0.0083  0.0000  0.0001 -0.0021
                                        -0.0001  0.0000  0.0000  0.0000  0.0000
                                        -0.0017  0.0000  0.0000  0.0000 -0.0039
                                        -0.0001 -0.0015  0.0000  0.0000  0.0000
                                         0.0000  0.0000 -0.0035  0.0000  0.0032
                                         0.0000  0.0000  0.0000  0.0000  0.0000
                                         0.0019 -0.0001 -0.0001  0.0000  0.0002
                                        -0.0004  0.0000  0.0000  0.0000 -0.0010
                                         0.0000  0.0000 -0.0005  0.0002  0.0000
               ( 73.52%)  -0.8574* H  3 s( 99.61%)p 0.00(  0.29%)d 0.00(  0.06%)
                                                  f 0.00(  0.03%)g 0.00(  0.00%)
                                                  h 0.00(  0.00%)
                                        -0.9981  0.0006  0.0002  0.0000  0.0000
                                         0.0000  0.0000  0.0000  0.0000  0.0000
                                         0.0000  0.0362 -0.0129 -0.0041 -0.0004
                                         0.0001  0.0376 -0.0030  0.0016  0.0002
                                        -0.0001  0.0000  0.0000  0.0000  0.0000
                                         0.0000  0.0000  0.0000  0.0000 -0.0065
                                        -0.0185 -0.0006  0.0001  0.0083  0.0115
                                         0.0007  0.0002 -0.0019  0.0001  0.0007
                                        -0.0001  0.0068  0.0007 -0.0001  0.0000
                                         0.0000  0.0000 -0.0047 -0.0010 -0.0001
                                         0.0127  0.0014  0.0000  0.0000  0.0000
                                         0.0000  0.0000  0.0000  0.0000  0.0088
                                        -0.0005  0.0000  0.0023  0.0004  0.0000
                                         0.0000  0.0029 -0.0003  0.0024  0.0007
                                         0.0000  0.0000  0.0000  0.0000  0.0046
                                         0.0005 -0.0028 -0.0001  0.0000  0.0000
                                         0.0002  0.0000  0.0011 -0.0001  0.0000
                                         0.0000  0.0011 -0.0013  0.0000  0.0000
                                        -0.0007
   8. (0.00000) RY ( 1) O  1            s(  3.02%)p28.80( 86.92%)d 0.97(  2.93%)
                                                  f 1.98(  5.97%)g 0.29(  0.86%)
                                                  h 0.09(  0.26%)i 0.01(  0.04%)
   9. (0.00000) RY ( 2) O  1            s( 89.71%)p 0.05(  4.79%)d 0.04(  3.50%)
                                                  f 0.01(  1.04%)g 0.01(  0.93%)
                                                  h 0.00(  0.02%)i 0.00(  0.01%)
  10. (0.00000) RY ( 3) O  1            s( 76.16%)p 0.14( 10.74%)d 0.14( 10.44%)
                                                  f 0.03(  2.18%)g 0.01(  0.43%)
                                                  h 0.00(  0.05%)i 0.00(  0.01%)
  11. (0.00000) RY ( 4) O  1            s( 38.21%)p 0.80( 30.42%)d 0.45( 17.30%)
                                                  f 0.26(  9.79%)g 0.11(  4.17%)
                                                  h 0.00(  0.10%)i 0.00(  0.01%)
  12. (0.00000) RY ( 5) O  1            s(  7.11%)p 2.61( 18.55%)d 6.94( 49.34%)
                                                  f 3.23( 22.96%)g 0.26(  1.84%)
                                                  h 0.02(  0.17%)i 0.00(  0.02%)
  13. (0.00000) RY ( 6) O  1            s(  7.56%)p 0.67(  5.04%)d 5.74( 43.36%)
                                                  f 5.31( 40.08%)g 0.48(  3.66%)
                                                  h 0.03(  0.26%)i 0.01(  0.04%)
  14. (0.00000) RY ( 7) O  1            s(  4.75%)p 7.10( 33.73%)d 8.75( 41.57%)
                                                  f 2.48( 11.78%)g 1.66(  7.88%)
                                                  h 0.05(  0.25%)i 0.01(  0.04%)
  15. (0.00000) RY ( 8) O  1            s( 52.41%)p 0.41( 21.50%)d 0.34( 18.02%)
                                                  f 0.07(  3.74%)g 0.08(  4.02%)
                                                  h 0.00(  0.25%)i 0.00(  0.07%)
  16. (0.00000) RY ( 9) O  1            s(  1.14%)p12.54( 14.30%)d17.58( 20.05%)
                                                  f47.30( 53.95%)g 8.39(  9.57%)
                                                  h 0.69(  0.79%)i 0.17(  0.20%)
  17. (0.00000) RY (10) O  1            s(  5.28%)p 3.84( 20.31%)d 6.66( 35.16%)
                                                  f 5.01( 26.46%)g 2.40( 12.66%)
                                                  h 0.02(  0.13%)i 0.00(  0.00%)
  18. (0.00000) RY (11) O  1            s(  4.59%)p12.89( 59.14%)d 2.42( 11.12%)
                                                  f 3.75( 17.23%)g 1.60(  7.33%)
                                                  h 0.04(  0.19%)i 0.09(  0.39%)
  19. (0.00000) RY (12) O  1            s(  4.07%)p 8.73( 35.58%)d10.25( 41.75%)
                                                  f 3.19( 13.01%)g 1.06(  4.32%)
                                                  h 0.18(  0.73%)i 0.13(  0.52%)
  20. (0.00000) RY (13) O  1            s(  4.63%)p 3.21( 14.88%)d 8.42( 39.00%)
                                                  f 6.64( 30.73%)g 2.24( 10.36%)
                                                  h 0.08(  0.37%)i 0.01(  0.02%)
  21. (0.00000) RY (14) O  1            s(  2.39%)p 4.61( 11.04%)d16.63( 39.79%)
                                                  f15.88( 38.00%)g 3.46(  8.29%)
                                                  h 0.20(  0.48%)i 0.01(  0.01%)
  22. (0.00000) RY (15) O  1            s(  0.00%)p 1.00( 61.55%)d 0.43( 26.41%)
                                                  f 0.13(  8.00%)g 0.06(  3.98%)
                                                  h 0.00(  0.05%)i 0.00(  0.01%)
  23. (0.00000) RY (16) O  1            s(  0.00%)p 1.00( 11.30%)d 4.35( 49.20%)
                                                  f 2.59( 29.30%)g 0.90( 10.17%)
                                                  h 0.00(  0.02%)i 0.00(  0.00%)
  24. (0.00000) RY (17) O  1            s(  1.75%)p10.38( 18.13%)d20.28( 35.42%)
                                                  f20.21( 35.30%)g 4.81(  8.40%)
                                                  h 0.48(  0.83%)i 0.10(  0.17%)
  25. (0.00000) RY (18) O  1            s(  2.27%)p 1.61(  3.66%)d19.31( 43.89%)
                                                  f18.09( 41.12%)g 3.70(  8.40%)
                                                  h 0.10(  0.23%)i 0.19(  0.44%)
  26. (0.00000) RY (19) O  1            s( 10.21%)p 2.58( 26.33%)d 3.09( 31.54%)
                                                  f 2.48( 25.29%)g 0.47(  4.76%)
                                                  h 0.05(  0.54%)i 0.13(  1.33%)
  27. (0.00000) RY (20) O  1            s( 21.39%)p 0.61( 13.14%)d 1.70( 36.33%)
                                                  f 1.05( 22.54%)g 0.25(  5.36%)
                                                  h 0.05(  1.03%)i 0.01(  0.21%)
  28. (0.00000) RY (21) O  1            s(  4.38%)p 1.76(  7.74%)d 5.69( 24.97%)
                                                  f 8.13( 35.66%)g 5.12( 22.43%)
                                                  h 0.57(  2.51%)i 0.52(  2.30%)
  29. (0.00000) RY (22) O  1            s(  7.34%)p 1.59( 11.64%)d 1.09(  7.99%)
                                                  f 7.38( 54.14%)g 2.36( 17.33%)
                                                  h 0.15(  1.07%)i 0.07(  0.49%)
  30. (0.00000) RY (23) O  1            s(  6.16%)p 7.29( 44.95%)d 3.60( 22.20%)
                                                  f 1.63( 10.07%)g 2.24( 13.78%)
                                                  h 0.36(  2.25%)i 0.10(  0.59%)
  31. (0.00000) RY (24) O  1            s( 43.62%)p 0.20(  8.85%)d 0.40( 17.45%)
                                                  f 0.36( 15.53%)g 0.27( 11.61%)
                                                  h 0.05(  2.20%)i 0.02(  0.74%)
  32. (0.00000) RY (25) O  1            s(  0.19%)p99.99( 27.11%)d99.99( 21.32%)
                                                  f99.99( 30.79%)g99.99( 19.37%)
                                                  h 3.43(  0.66%)i 2.89(  0.55%)
  33. (0.00000) RY (26) O  1            s(  6.30%)p 2.66( 16.73%)d 2.40( 15.10%)
                                                  f 4.33( 27.27%)g 4.93( 31.07%)
                                                  h 0.54(  3.39%)i 0.03(  0.16%)
  34. (0.00000) RY (27) O  1            s(  2.89%)p 3.40(  9.82%)d15.63( 45.17%)
                                                  f 7.22( 20.87%)g 6.80( 19.66%)
                                                  h 0.50(  1.44%)i 0.06(  0.16%)
  35. (0.00000) RY (28) O  1            s(  1.29%)p 2.17(  2.80%)d18.89( 24.36%)
                                                  f22.92( 29.55%)g28.84( 37.19%)
                                                  h 2.12(  2.74%)i 1.61(  2.07%)
  36. (0.00000) RY (29) O  1            s(  6.04%)p 0.71(  4.30%)d 8.83( 53.36%)
                                                  f 2.94( 17.75%)g 2.60( 15.73%)
                                                  h 0.25(  1.54%)i 0.21(  1.27%)
  37. (0.00000) RY (30) O  1            s( 11.22%)p 1.46( 16.38%)d 1.08( 12.08%)
                                                  f 3.44( 38.64%)g 1.68( 18.82%)
                                                  h 0.24(  2.67%)i 0.02(  0.19%)
  38. (0.00000) RY (31) O  1            s(  3.45%)p 7.75( 26.73%)d 7.92( 27.33%)
                                                  f 7.71( 26.58%)g 2.27(  7.83%)
                                                  h 1.38(  4.76%)i 0.96(  3.32%)
[...]
      Donor (L) NBO              Acceptor (NL) NBO      kcal/mol   a.u.    a.u.
 ===============================================================================

 within unit  1
    2. LP ( 1) O  1           144. RY ( 2) H  2            0.74    3.51   0.046
    2. LP ( 1) O  1           234. RY ( 2) H  3            0.74    3.51   0.046
    3. LP ( 2) O  1           143. RY ( 1) H  2            1.77    2.84   0.063
    3. LP ( 2) O  1           233. RY ( 1) H  3            1.77    2.84   0.063
    4. BD ( 1) O  1- H  2     235. RY ( 3) H  3            1.12    3.83   0.059
    5. BD ( 1) O  1- H  3     145. RY ( 3) H  2            1.12    3.83   0.059


 NATURAL BOND ORBITALS (Summary):

                                                     Principal Delocalizations
           NBO                 Occupancy    Energy   (geminal,vicinal,remote)
 ===============================================================================
 Molecular unit  1  (H2O)
 ------ Lewis --------------------------------------
    1. CR ( 1) O  1             2.00000   -20.56178
    2. LP ( 1) O  1             1.99875    -0.79604  144(v),234(v)
    3. LP ( 2) O  1             1.99800    -0.50585  143(v),233(v)
    4. BD ( 1) O  1- H  2       1.99937    -0.92377  235(v)
    5. BD ( 1) O  1- H  3       1.99937    -0.92377  145(v)
 ------ non-Lewis ----------------------------------
    6. BD*( 1) O  1- H  2       0.00016     0.73646
    7. BD*( 1) O  1- H  3       0.00016     0.73646
    8. RY ( 1) O  1             0.00000    10.72648
    9. RY ( 2) O  1             0.00000    18.01763
   10. RY ( 3) O  1             0.00000    26.23258
   11. RY ( 4) O  1             0.00000    15.14254
   12. RY ( 5) O  1             0.00000    19.10291
   13. RY ( 6) O  1             0.00000    17.16297
   14. RY ( 7) O  1             0.00000    14.72178
   15. RY ( 8) O  1             0.00000    20.16399
   16. RY ( 9) O  1             0.00000    23.23200
   17. RY (10) O  1             0.00000    20.04964
   18. RY (11) O  1             0.00000    13.69400
   19. RY (12) O  1             0.00000    15.39746
   20. RY (13) O  1             0.00000    22.63355
   21. RY (14) O  1             0.00000    22.42431
   22. RY (15) O  1             0.00000    11.25077
   23. RY (16) O  1             0.00000    18.19202
   24. RY (17) O  1             0.00000    17.60078
   25. RY (18) O  1             0.00000    21.17096
   26. RY (19) O  1             0.00000    20.01553
   27. RY (20) O  1             0.00000    17.97480
   28. RY (21) O  1             0.00000    20.85430
   29. RY (22) O  1             0.00000    16.91399
   30. RY (23) O  1             0.00000    17.68145
   31. RY (24) O  1             0.00000    12.34924
   32. RY (25) O  1             0.00000    17.16986
   33. RY (26) O  1             0.00000    17.40781
   34. RY (27) O  1             0.00000    18.35774
   35. RY (28) O  1             0.00000    17.11035
   36. RY (29) O  1             0.00000    23.79479
   37. RY (30) O  1             0.00000    17.21120
   38. RY (31) O  1             0.00000    11.92366
   39. RY (32) O  1             0.00000    14.14542
   40. RY (33) O  1             0.00000    21.60936
   41. RY (34) O  1             0.00000    16.11999
   42. RY (35) O  1             0.00000    13.96739
   43. RY (36) O  1             0.00000    20.49404
   44. RY (37) O  1             0.00000    15.46008
   45. RY (38) O  1             0.00000    18.93836
   46. RY (39) O  1             0.00000    16.75986
   47. RY (40) O  1             0.00000    12.01985
   48. RY (41) O  1             0.00000    16.50202
   49. RY (42) O  1             0.00000    13.55071
   50. RY (43) O  1             0.00000    18.30461
   51. RY (44) O  1             0.00000    19.37933
   52. RY (45) O  1             0.00000    15.51625
   53. RY (46) O  1             0.00000    16.54730
   54. RY (47) O  1             0.00000    15.21384
   55. RY (48) O  1             0.00000    11.90024
   56. RY (49) O  1             0.00000    19.27589
   57. RY (50) O  1             0.00000    13.26533
   58. RY (51) O  1             0.00000    16.23044
   59. RY (52) O  1             0.00000    20.93948
   60. RY (53) O  1             0.00000    17.39988
   61. RY (54) O  1             0.00000    12.69497
   62. RY (55) O  1             0.00000    15.85912
   63. RY (56) O  1             0.00000    15.14094
   64. RY (57) O  1             0.00000    20.44162
   65. RY (58) O  1             0.00000    16.80395
   66. RY (59) O  1             0.00000    11.71536
   67. RY (60) O  1             0.00000    15.95533
   68. RY (61) O  1             0.00000    11.12209
   69. RY (62) O  1             0.00000    13.18140
   70. RY (63) O  1             0.00000    14.65181
   71. RY (64) O  1             0.00000    10.66145
   72. RY (65) O  1             0.00000    15.83444
   73. RY (66) O  1             0.00000    12.64420
   74. RY (67) O  1             0.00000    16.17401
   75. RY (68) O  1             0.00000    11.53359
   76. RY (69) O  1             0.00000    14.99442
   77. RY (70) O  1             0.00000    13.29586
   78. RY (71) O  1             0.00000    11.77601
   79. RY (72) O  1             0.00000    13.83689
   80. RY (73) O  1             0.00000    14.07523
   81. RY (74) O  1             0.00000    17.35337
   82. RY (75) O  1             0.00000    17.16395
   83. RY (76) O  1             0.00000    14.70673
   84. RY (77) O  1             0.00000    17.22557
   85. RY (78) O  1             0.00000    19.04772
   86. RY (79) O  1             0.00000    16.44862
   87. RY (80) O  1             0.00000    16.56087
   88. RY (81) O  1             0.00000    16.76499
   89. RY (82) O  1             0.00000    13.84183
   90. RY (83) O  1             0.00000    16.67187
   91. RY (84) O  1             0.00000    17.58954
   92. RY (85) O  1             0.00000    15.90770
   93. RY (86) O  1             0.00000    16.25125
   94. RY (87) O  1             0.00000    17.66311
   95. RY (88) O  1             0.00000    15.45762
   96. RY (89) O  1             0.00000    17.68604
   97. RY (90) O  1             0.00000     8.91751
   98. RY (91) O  1             0.00000    17.27260
   99. RY (92) O  1             0.00000    15.23956
  100. RY (93) O  1             0.00000    11.61732
  101. RY (94) O  1             0.00000    16.22285
  102. RY (95) O  1             0.00000    18.76504
  103. RY (96) O  1             0.00000    18.87385
  104. RY (97) O  1             0.00000     9.14846
  105. RY (98) O  1             0.00000    11.28631
  106. RY (99) O  1             0.00000    14.13871
  107. RY (**) O  1             0.00000    18.65757
  108. RY (**) O  1             0.00000    18.95786
  109. RY (**) O  1             0.00000    17.84420
  110. RY (**) O  1             0.00000    18.48002
  111. RY (**) O  1             0.00000    12.40398
  112. RY (**) O  1             0.00000    12.83911
  113. RY (**) O  1             0.00000    10.84634
  114. RY (**) O  1             0.00000    13.25935
  115. RY (**) O  1             0.00000    21.13034
  116. RY (**) O  1             0.00000    20.24054
  117. RY (**) O  1             0.00000    11.85807
  118. RY (**) O  1             0.00000    19.91820
  119. RY (**) O  1             0.00000    17.96961
  120. RY (**) O  1             0.00000    15.75688
  121. RY (**) O  1             0.00000    17.01707
  122. RY (**) O  1             0.00000    11.74512
  123. RY (**) O  1             0.00000    21.57943
  124. RY (**) O  1             0.00000    16.68239
  125. RY (**) O  1             0.00000    14.37564
  126. RY (**) O  1             0.00000    16.06259
  127. RY (**) O  1             0.00000    17.71579
  128. RY (**) O  1             0.00000    20.93378
  129. RY (**) O  1             0.00000    14.69278
  130. RY (**) O  1             0.00000    14.04935
  131. RY (**) O  1             0.00000    10.86003
  132. RY (**) O  1             0.00000    11.86935
  133. RY (**) O  1             0.00000    15.69262
  134. RY (**) O  1             0.00000    23.06599
  135. RY (**) O  1             0.00000    19.38479
  136. RY (**) O  1             0.00000    17.41224
  137. RY (**) O  1             0.00000    14.46755
  138. RY (**) O  1             0.00000    18.51757
  139. RY (**) O  1             0.00000    18.64415
  140. RY (**) O  1             0.00000    20.27521
  141. RY (**) O  1             0.00000    19.90611
  142. RY (**) O  1             0.00000    19.54227
  143. RY ( 1) H  2             0.00100     2.33649
  144. RY ( 2) H  2             0.00066     2.71171
  145. RY ( 3) H  2             0.00043     2.90583
  146. RY ( 4) H  2             0.00000    11.12788
  147. RY ( 5) H  2             0.00000     9.13036
  148. RY ( 6) H  2             0.00000     9.88291
  149. RY ( 7) H  2             0.00000    21.38923
  150. RY ( 8) H  2             0.00000     9.12450
  151. RY ( 9) H  2             0.00000     8.00779
  152. RY (10) H  2             0.00000    17.75560
  153. RY (11) H  2             0.00000    10.43290
  154. RY (12) H  2             0.00000    10.50932
  155. RY (13) H  2             0.00000    14.41532
  156. RY (14) H  2             0.00000    16.63149
  157. RY (15) H  2             0.00000    13.78122
  158. RY (16) H  2             0.00000    16.08474
  159. RY (17) H  2             0.00000     8.41107
  160. RY (18) H  2             0.00000    12.37783
  161. RY (19) H  2             0.00000    16.26816
  162. RY (20) H  2             0.00000    13.85502
  163. RY (21) H  2             0.00000    11.29643
  164. RY (22) H  2             0.00000    15.25186
  165. RY (23) H  2             0.00000    15.00726
  166. RY (24) H  2             0.00000    14.84944
  167. RY (25) H  2             0.00000    15.52558
  168. RY (26) H  2             0.00000    11.90082
  169. RY (27) H  2             0.00000    21.75394
  170. RY (28) H  2             0.00000    13.98865
  171. RY (29) H  2             0.00000    13.53228
  172. RY (30) H  2             0.00000    13.62290
  173. RY (31) H  2             0.00000    10.91699
  174. RY (32) H  2             0.00000    12.55196
  175. RY (33) H  2             0.00000    12.55879
  176. RY (34) H  2             0.00000    12.25954
  177. RY (35) H  2             0.00000    11.83822
  178. RY (36) H  2             0.00000    10.95885
  179. RY (37) H  2             0.00000    13.03757
  180. RY (38) H  2             0.00000    13.79575
  181. RY (39) H  2             0.00000    12.16862
  182. RY (40) H  2             0.00000    14.49172
  183. RY (41) H  2             0.00000    11.17546
  184. RY (42) H  2             0.00000    13.15580
  185. RY (43) H  2             0.00000    11.27567
  186. RY (44) H  2             0.00000    12.47034
  187. RY (45) H  2             0.00000     9.83364
  188. RY (46) H  2             0.00000    13.86006
  189. RY (47) H  2             0.00000    13.63133
  190. RY (48) H  2             0.00000    13.39948
  191. RY (49) H  2             0.00000    10.15536
  192. RY (50) H  2             0.00000     7.28884
  193. RY (51) H  2             0.00000    15.42039
  194. RY (52) H  2             0.00000    11.34450
  195. RY (53) H  2             0.00000    12.74658
  196. RY (54) H  2             0.00000    15.72341
  197. RY (55) H  2             0.00000     6.62328
  198. RY (56) H  2             0.00000    12.39589
  199. RY (57) H  2             0.00000    12.58275
  200. RY (58) H  2             0.00000    15.87645
  201. RY (59) H  2             0.00000     8.38157
  202. RY (60) H  2             0.00000    14.25541
  203. RY (61) H  2             0.00000    13.24750
  204. RY (62) H  2             0.00000    16.69854
  205. RY (63) H  2             0.00000    12.61797
  206. RY (64) H  2             0.00000    16.05098
  207. RY (65) H  2             0.00000    15.33461
  208. RY (66) H  2             0.00000    11.49201
  209. RY (67) H  2             0.00000    13.01184
  210. RY (68) H  2             0.00000    18.45055
  211. RY (69) H  2             0.00000    10.67492
  212. RY (70) H  2             0.00000    13.66108
  213. RY (71) H  2             0.00000    10.25630
  214. RY (72) H  2             0.00000    15.53426
  215. RY (73) H  2             0.00000    12.23729
  216. RY (74) H  2             0.00000    16.31048
  217. RY (75) H  2             0.00000    11.56317
  218. RY (76) H  2             0.00000    13.49626
  219. RY (77) H  2             0.00000    12.40161
  220. RY (78) H  2             0.00000    15.29548
  221. RY (79) H  2             0.00000     8.25187
  222. RY (80) H  2             0.00000    14.87640
  223. RY (81) H  2             0.00000    15.57349
  224. RY (82) H  2             0.00000    13.33539
  225. RY (83) H  2             0.00000    14.23553
  226. RY (84) H  2             0.00000    13.26393
  227. RY (85) H  2             0.00000    14.03611
  228. RY (86) H  2             0.00000    14.00414
  229. RY (87) H  2             0.00000    16.74332
  230. RY (88) H  2             0.00000    16.53510
  231. RY (89) H  2             0.00000    12.09822
  232. RY (90) H  2             0.00000    13.78765
  233. RY ( 1) H  3             0.00100     2.33649
  234. RY ( 2) H  3             0.00066     2.71171
  235. RY ( 3) H  3             0.00043     2.90583
  236. RY ( 4) H  3             0.00000    11.12788
  237. RY ( 5) H  3             0.00000    12.53741
  238. RY ( 6) H  3             0.00000     5.97638
  239. RY ( 7) H  3             0.00000    25.11567
  240. RY ( 8) H  3             0.00000    12.37372
  241. RY ( 9) H  3             0.00000    10.14160
  242. RY (10) H  3             0.00000     6.30285
  243. RY (11) H  3             0.00000    15.92105
  244. RY (12) H  3             0.00000    22.00411
  245. RY (13) H  3             0.00000    16.18901
  246. RY (14) H  3             0.00000    15.92195
  247. RY (15) H  3             0.00000    11.40245
  248. RY (16) H  3             0.00000    11.57829
  249. RY (17) H  3             0.00000    11.83109
  250. RY (18) H  3             0.00000    11.26808
  251. RY (19) H  3             0.00000    12.27611
  252. RY (20) H  3             0.00000    14.08055
  253. RY (21) H  3             0.00000    14.06461
  254. RY (22) H  3             0.00000    12.73788
  255. RY (23) H  3             0.00000    15.98961
  256. RY (24) H  3             0.00000     8.78653
  257. RY (25) H  3             0.00000    13.35726
  258. RY (26) H  3             0.00000    12.78900
  259. RY (27) H  3             0.00000    15.23764
  260. RY (28) H  3             0.00000    14.96901
  261. RY (29) H  3             0.00000    13.62571
  262. RY (30) H  3             0.00000    15.17430
  263. RY (31) H  3             0.00000    10.45562
  264. RY (32) H  3             0.00000    12.22361
  265. RY (33) H  3             0.00000    13.55396
  266. RY (34) H  3             0.00000    12.21777
  267. RY (35) H  3             0.00000    11.99922
  268. RY (36) H  3             0.00000    11.28700
  269. RY (37) H  3             0.00000    17.21542
  270. RY (38) H  3             0.00000    10.49347
  271. RY (39) H  3             0.00000    11.03026
  272. RY (40) H  3             0.00000    12.20047
  273. RY (41) H  3             0.00000    12.03516
  274. RY (42) H  3             0.00000    12.42569
  275. RY (43) H  3             0.00000    11.19189
  276. RY (44) H  3             0.00000    12.65725
  277. RY (45) H  3             0.00000    14.50493
  278. RY (46) H  3             0.00000    11.31358
  279. RY (47) H  3             0.00000    11.64415
  280. RY (48) H  3             0.00000    11.15593
  281. RY (49) H  3             0.00000    12.98716
  282. RY (50) H  3             0.00000     9.43951
  283. RY (51) H  3             0.00000    11.06237
  284. RY (52) H  3             0.00000    12.68712
  285. RY (53) H  3             0.00000    16.35098
  286. RY (54) H  3             0.00000    11.61680
  287. RY (55) H  3             0.00000     9.71630
  288. RY (56) H  3             0.00000    13.11082
  289. RY (57) H  3             0.00000    10.78101
  290. RY (58) H  3             0.00000    11.36263
  291. RY (59) H  3             0.00000    13.42500
  292. RY (60) H  3             0.00000    13.39810
  293. RY (61) H  3             0.00000    15.84818
  294. RY (62) H  3             0.00000    14.04366
  295. RY (63) H  3             0.00000    12.18776
  296. RY (64) H  3             0.00000    11.96378
  297. RY (65) H  3             0.00000    10.96761
  298. RY (66) H  3             0.00000    11.28571
  299. RY (67) H  3             0.00000    14.26583
  300. RY (68) H  3             0.00000    14.33513
  301. RY (69) H  3             0.00000    14.80614
  302. RY (70) H  3             0.00000    13.71217
  303. RY (71) H  3             0.00000    15.42369
  304. RY (72) H  3             0.00000    11.01845
  305. RY (73) H  3             0.00000    15.39867
  306. RY (74) H  3             0.00000    17.29754
  307. RY (75) H  3             0.00000    15.56641
  308. RY (76) H  3             0.00000    15.50580
  309. RY (77) H  3             0.00000    15.38506
  310. RY (78) H  3             0.00000    14.65159
  311. RY (79) H  3             0.00000    16.26282
  312. RY (80) H  3             0.00000    14.59428
  313. RY (81) H  3             0.00000    14.28064
  314. RY (82) H  3             0.00000    12.65540
  315. RY (83) H  3             0.00000    12.54704
  316. RY (84) H  3             0.00000    13.49413
  317. RY (85) H  3             0.00000    10.92144
  318. RY (86) H  3             0.00000    13.67054
  319. RY (87) H  3             0.00000    17.01305
  320. RY (88) H  3             0.00000    13.03753
  321. RY (89) H  3             0.00000    10.40110
  322. RY (90) H  3             0.00000    16.30065
          -------------------------------
                 Total Lewis    9.99549  ( 99.9549%)
           Valence non-Lewis    0.00033  (  0.0033%)
           Rydberg non-Lewis    0.00418  (  0.0418%)
          -------------------------------
               Total unit  1   10.00000  (100.0000%)
              Charge unit  1    0.00000

 $CHOOSE
   LONE 1 2 END
   BOND S 1 2 S 1 3 END
 $END

 NBO analysis completed in 4.41 CPU seconds (4 wall seconds)
 Maximum scratch memory used by NBO was 2627912 words (20.05 MB)
 Maximum scratch memory used by G16NBO was 165646 words (1.26 MB)

 Opening RunExU unformatted file "/scr/ericg/h2o/Gau-19346.EUF"
 Read unf file /scr/ericg/h2o/Gau-19346.EUF:
 Label Gaussian matrix elements                                         IVers= 1 NLab= 2 Version=ES64L-G16RevB.01
 Title Water...rhf/cc-pV6Z//idealized                                  
 NAtoms=     3 NBasis=   322 NBsUse=   322 ICharg=     0 Multip=     1 NE=    10 Len12L=8 Len4L=8 IOpCl= 0 ICGU= -1
 GAUSSIAN SCALARS                    NI= 1 NR= 1 NTot=       1 LenBuf=    2 NRI=1 N=    1000
 NPA CHARGES                         NI= 0 NR= 1 NTot=       3 LenBuf= 4000 NRI=1 N=       3
 Recovered energy= -76.0668426588     dipole=     -0.000000000000      0.000000000000     -0.751426037986
 1\1\GINC-NEUTRON\SP\RHF\CC-pV6Z\H2O1\ERICG\18-May-2020\0\\# rhf/cc-pV6
 Z pop=nbo6\\Water...rhf/cc-pV6Z//idealized\\0,1\O,0,0.,0.,0.110851\H,0
 ,0.,0.783837,-0.443405\H,0,0.,-0.783837,-0.443405\\Version=ES64L-G16Re
 vB.01\State=1-A1\HF=-76.0668427\RMSD=3.663e-09\Dipole=0.,0.,-0.751426\
 Quadrupole=-1.1643253,1.4645791,-0.3002538,0.,0.,0.\PG=C02V [C2(O1),SG
 V(H2)]\\@


 THOSE WHO TRY TO PASS CHEMISTRY OFF AS A NEW SCIENCE
 SHOW HOW LITTLE KNOWLEDGE THEY HAVE OF THE CHARACTER
 AND LITERATURE OF THE ANCIENTS.
   -- NICOLAS LEFEVRE
 "COURS DE CHYMIE" J.-N.LELOUP, PARIS, 1751
 Job cpu time:       0 days  0 hours 17 minutes 46.3 seconds.
 Elapsed time:       0 days  0 hours  8 minutes 25.2 seconds.
 File lengths (MBytes):  RWF=     62 Int=      0 D2E=      0 Chk=      7 Scr=      1
 Normal termination of Gaussian 16 at Mon May 18 16:49:20 2020.
