 Entering Gaussian System, Link 0=/opt/g16.b01/g16/g16
 Initial command:
 /opt/g16.b01/g16/l1.exe "/scr/ericg/reopt-ecl/Gau-12596.inp" -scrdir="/scr/ericg/reopt-ecl/"
 Entering Link 1 = /opt/g16.b01/g16/l1.exe PID=     12598.
  
 Copyright (c) 1988-2017, Gaussian, Inc.  All Rights Reserved.
  
 This is part of the Gaussian(R) 16 program.  It is based on
 the Gaussian(R) 09 system (copyright 2009, Gaussian, Inc.),
 the Gaussian(R) 03 system (copyright 2003, Gaussian, Inc.),
 the Gaussian(R) 98 system (copyright 1998, Gaussian, Inc.),
 the Gaussian(R) 94 system (copyright 1995, Gaussian, Inc.),
 the Gaussian 92(TM) system (copyright 1992, Gaussian, Inc.),
 the Gaussian 90(TM) system (copyright 1990, Gaussian, Inc.),
 the Gaussian 88(TM) system (copyright 1988, Gaussian, Inc.),
 the Gaussian 86(TM) system (copyright 1986, Carnegie Mellon
 University), and the Gaussian 82(TM) system (copyright 1983,
 Carnegie Mellon University). Gaussian is a federally registered
 trademark of Gaussian, Inc.
  
 This software contains proprietary and confidential information,
 including trade secrets, belonging to Gaussian, Inc.
  
 This software is provided under written license and may be
 used, copied, transmitted, or stored only in accord with that
 written license.
  
 The following legend is applicable only to US Government
 contracts under FAR:
  
                    RESTRICTED RIGHTS LEGEND
  
 Use, reproduction and disclosure by the US Government is
 subject to restrictions as set forth in subparagraphs (a)
 and (c) of the Commercial Computer Software - Restricted
 Rights clause in FAR 52.227-19.
  
 Gaussian, Inc.
 340 Quinnipiac St., Bldg. 40, Wallingford CT 06492
  
  
 ---------------------------------------------------------------
 Warning -- This program may not be used in any manner that
 competes with the business of Gaussian, Inc. or will provide
 assistance to any competitor of Gaussian, Inc.  The licensee
 of this program is prohibited from giving any competitor of
 Gaussian, Inc. access to this program.  By using this program,
 the user acknowledges that Gaussian, Inc. is engaged in the
 business of creating and licensing software in the field of
 computational chemistry and represents and warrants to the
 licensee that it is not a competitor of Gaussian, Inc. and that
 it will not use this program in any manner prohibited above.
 ---------------------------------------------------------------
  

 Cite this work as:
 Gaussian 16, Revision B.01,
 M. J. Frisch, G. W. Trucks, H. B. Schlegel, G. E. Scuseria, 
 M. A. Robb, J. R. Cheeseman, G. Scalmani, V. Barone, 
 G. A. Petersson, H. Nakatsuji, X. Li, M. Caricato, A. V. Marenich, 
 J. Bloino, B. G. Janesko, R. Gomperts, B. Mennucci, H. P. Hratchian, 
 J. V. Ortiz, A. F. Izmaylov, J. L. Sonnenberg, D. Williams-Young, 
 F. Ding, F. Lipparini, F. Egidi, J. Goings, B. Peng, A. Petrone, 
 T. Henderson, D. Ranasinghe, V. G. Zakrzewski, J. Gao, N. Rega, 
 G. Zheng, W. Liang, M. Hada, M. Ehara, K. Toyota, R. Fukuda, 
 J. Hasegawa, M. Ishida, T. Nakajima, Y. Honda, O. Kitao, H. Nakai, 
 T. Vreven, K. Throssell, J. A. Montgomery, Jr., J. E. Peralta, 
 F. Ogliaro, M. J. Bearpark, J. J. Heyd, E. N. Brothers, K. N. Kudin, 
 V. N. Staroverov, T. A. Keith, R. Kobayashi, J. Normand, 
 K. Raghavachari, A. P. Rendell, J. C. Burant, S. S. Iyengar, 
 J. Tomasi, M. Cossi, J. M. Millam, M. Klene, C. Adamo, R. Cammi, 
 J. W. Ochterski, R. L. Martin, K. Morokuma, O. Farkas, 
 J. B. Foresman, and D. J. Fox, Gaussian, Inc., Wallingford CT, 2016.
 
 ******************************************
 Gaussian 16:  ES64L-G16RevB.01 20-Dec-2017
                18-May-2020 
 ******************************************
 %nproc=4
 Will use up to    4 processors via shared memory.
 ------------------------------------
 # rhf/3-21g opt=z-matrix pop=nbo6del
 ------------------------------------

 Warning:  this job cannot use analytic gradients
           and so will do many energy evaluations.

 1/18=40,29=20000,38=1,163=2,172=1/1,14;
 2/12=2,17=6,18=5,29=3,40=1/2;
 3/5=5,11=1,25=1,30=1,116=1/1,2,3;
 4//1;
 5/5=2,38=5/2;
 6/7=2,8=2,9=2,10=2,28=1,40=12,113=1,114=1,124=2103/1,12(1);
 99//99;
 5/5=2,7=1,13=1,38=1,48=100000/2;
 6/7=2,8=2,9=2,10=2,28=1,40=3,113=1,114=1,124=2103/12(-1);
 1/18=40/14(2);
 2/29=3/2;
 99//99;
 2/29=3/2;
 3/5=5,11=1,25=1,30=1,116=1/1,2,3;
 4/5=5,16=3,69=1/1;
 5/5=2,38=5/2;
 6/7=2,8=2,9=2,10=2,28=1,40=12,113=1,114=1,124=2103/1,12(1);
 99/9=1/99;
 5/5=2,7=1,13=1,38=1,48=100000/2;
 6/7=2,8=2,9=2,10=2,28=1,40=3,113=1,114=1,124=2103/12(-1);
 1/18=40/14(-8);
 2/29=3/2;
 6/7=2,8=2,9=2,10=2,19=2,28=1,40=12,113=1,114=1,124=2103/1,12;
 99/9=1/99;
 ----------------------------------------------------------
 Eclipsed Methylamine...reoptimization with LEWIS deletions
 ----------------------------------------------------------
 Symbolic Z-matrix:
 Charge =  0 Multiplicity = 1
 C
 N                    1    CN
 H                    1    CHa      2    NCHa
 H                    1    CHb      2    NCHb     3    alfa     0
 H                    1    CHb      2    NCHb     3    -alfa    0
 H                    2    NH       1    CNH      3    beta     0
 H                    2    NH       1    CNH      3    -beta    0
       Variables:
  CN                    1.4719                   
  CHa                   1.0839                   
  CHb                   1.0851                   
  NH                    0.9995                   
  NCHa                111.2322                   
  NCHb                111.1628                   
  CNH                 115.4575                   
  alfa                120.2608                   
  beta                112.7337                   
 

 NEF-NEF-NEF-NEF-NEF-NEF-NEF-NEF-NEF-NEF-NEF-NEF-NEF-NEF-NEF-NEF-NEF-NEF-
 NUMERICAL EIGENVECTOR FOLLOWING MINIMUM SEARCH
 INITIALIZATION PASS
                       ----------------------------
                       !    Initial Parameters    !
                       ! (Angstroms and Degrees)  !
 ----------------------                            ----------------------
 !      Name          Value   Derivative information (Atomic Units)     !
 ------------------------------------------------------------------------
 !       CN          1.4719   estimate D2E/DX2                          !
 !       CHa         1.0839   estimate D2E/DX2                          !
 !       CHb         1.0851   estimate D2E/DX2                          !
 !       NH          0.9995   estimate D2E/DX2                          !
 !      NCHa       111.2322   estimate D2E/DX2                          !
 !      NCHb       111.1628   estimate D2E/DX2                          !
 !       CNH       115.4575   estimate D2E/DX2                          !
 !      alfa       120.2608   estimate D2E/DX2                          !
 !      beta       112.7337   estimate D2E/DX2                          !
 ------------------------------------------------------------------------


 ***************************************************
 ** O P T I M I Z A T I O N   P A R A M E T E R S **
 **  MAXIMUM NO. OF ITERATIONS      :          29 **
 **  MAXIMUM ALLOWED STEP LENGTH    :    0.300000 **
 ***************************************************



 NEF-NEF-NEF-NEF-NEF-NEF-NEF-NEF-NEF-NEF-NEF-NEF-NEF-NEF-NEF-NEF-NEF-NEF-
 ---------------------------------------------------------------------------------------------------
                            Z-MATRIX (ANGSTROMS AND DEGREES)
   CD    Cent   Atom    N1       Length/X        N2       Alpha/Y        N3        Beta/Z          J
 ---------------------------------------------------------------------------------------------------
      1      1  C 
      2      2  N        1   1.471900(     1)
      3      3  H        1   1.083900(     2)      2  111.232(     7)
      4      4  H        1   1.085100(     3)      2  111.163(     8)      3  120.261(    12)      0
      5      5  H        1   1.085100(     4)      2  111.163(     9)      3 -120.261(    13)      0
      6      6  H        2   0.999500(     5)      1  115.458(    10)      3  112.734(    14)      0
      7      7  H        2   0.999500(     6)      1  115.458(    11)      3 -112.734(    15)      0
 ---------------------------------------------------------------------------------------------------
                         Z-Matrix orientation:                         
 ---------------------------------------------------------------------
 Center     Atomic      Atomic             Coordinates (Angstroms)
 Number     Number       Type             X           Y           Z
 ---------------------------------------------------------------------
      1          6           0        0.000000    0.000000    0.000000
      2          7           0        0.000000    0.000000    1.471900
      3          1           0        1.010325    0.000000   -0.392533
      4          1           0       -0.509943   -0.874036   -0.391742
      5          1           0       -0.509943    0.874036   -0.391742
      6          1           0       -0.348752    0.832342    1.901527
      7          1           0       -0.348752   -0.832342    1.901527
 ---------------------------------------------------------------------
                    Distance matrix (angstroms):
                    1          2          3          4          5
     1  C    0.000000
     2  N    1.471900   0.000000
     3  H    1.083900   2.120582   0.000000
     4  H    1.085100   2.120646   1.753612   0.000000
     5  H    1.085100   2.120646   1.753612   1.748071   0.000000
     6  H    2.104810   0.999500   2.793312   2.863003   2.299305
     7  H    2.104810   0.999500   2.793312   2.299305   2.863003
                    6          7
     6  H    0.000000
     7  H    1.664684   0.000000
 Stoichiometry    CH5N
 Framework group  CS[SG(CHN),X(H4)]
 Deg. of freedom     9
 Full point group                 CS      NOp   2
 Largest Abelian subgroup         CS      NOp   2
 Largest concise Abelian subgroup CS      NOp   2
                         Standard orientation:                         
 ---------------------------------------------------------------------
 Center     Atomic      Atomic             Coordinates (Angstroms)
 Number     Number       Type             X           Y           Z
 ---------------------------------------------------------------------
      1          6           0       -0.039281    0.718352   -0.000000
      2          7           0       -0.039281   -0.753548    0.000000
      3          1           0       -1.049607    1.110885   -0.000000
      4          1           0        0.470662    1.110094    0.874036
      5          1           0        0.470662    1.110094   -0.874036
      6          1           0        0.309470   -1.183175   -0.832342
      7          1           0        0.309470   -1.183175    0.832342
 ---------------------------------------------------------------------
 Rotational constants (GHZ):         107.8914691          22.5161648          21.3839704
 Standard basis: 3-21G (6D, 7F)
 There are    20 symmetry adapted cartesian basis functions of A'  symmetry.
 There are     8 symmetry adapted cartesian basis functions of A"  symmetry.
 There are    20 symmetry adapted basis functions of A'  symmetry.
 There are     8 symmetry adapted basis functions of A"  symmetry.
    28 basis functions,    45 primitive gaussians,    28 cartesian basis functions
     9 alpha electrons        9 beta electrons
       nuclear repulsion energy        41.9836723013 Hartrees.
 NAtoms=    7 NActive=    7 NUniq=    5 SFac= 1.96D+00 NAtFMM=   60 NAOKFM=F Big=F
 Integral buffers will be    131072 words long.
 Raffenetti 1 integral format.
 Two-electron integral symmetry is turned on.
 One-electron integrals computed using PRISM.
 NBasis=    28 RedAO= T EigKep=  2.62D-02  NBF=    20     8
 NBsUse=    28 1.00D-06 EigRej= -1.00D+00 NBFU=    20     8
 ExpMin= 1.83D-01 ExpMax= 2.43D+02 ExpMxC= 2.43D+02 IAcc=3 IRadAn=         5 AccDes= 0.00D+00
 Harris functional with IExCor=  205 and IRadAn=       5 diagonalized for initial guess.
 HarFok:  IExCor=  205 AccDes= 0.00D+00 IRadAn=         5 IDoV= 1 UseB2=F ITyADJ=14
 ICtDFT=  3500011 ScaDFX=  1.000000  1.000000  1.000000  1.000000
 FoFCou: FMM=F IPFlag=           0 FMFlag=      100000 FMFlg1=           0
         NFxFlg=           0 DoJE=T BraDBF=F KetDBF=T FulRan=T
         wScrn=  0.000000 ICntrl=       500 IOpCl=  0 I1Cent=   200000004 NGrid=           0
         NMat0=    1 NMatS0=      1 NMatT0=    0 NMatD0=    1 NMtDS0=    0 NMtDT0=    0
 Petite list used in FoFCou.
 Initial guess orbital symmetries:
       Occupied  (A') (A') (A') (A') (A") (A') (A') (A") (A')
       Virtual   (A') (A") (A') (A') (A') (A") (A') (A") (A') (A')
                 (A') (A") (A') (A") (A') (A') (A") (A') (A')
 The electronic state of the initial guess is 1-A'.
 Keep R1 ints in memory in symmetry-blocked form, NReq=892330.
 Requested convergence on RMS density matrix=1.00D-08 within 128 cycles.
 Requested convergence on MAX density matrix=1.00D-06.
 Requested convergence on             energy=1.00D-06.
 No special actions if energy rises.
 SCF Done:  E(RHF) =  -94.6784969932     A.U. after   10 cycles
            NFock= 10  Conv=0.97D-08     -V/T= 2.0023

 **********************************************************************

            Population analysis using the SCF Density.

 **********************************************************************

 Orbital symmetries:
       Occupied  (A') (A') (A') (A') (A") (A') (A') (A") (A')
       Virtual   (A') (A") (A') (A') (A") (A') (A") (A') (A') (A')
                 (A") (A') (A') (A") (A') (A') (A") (A') (A')
 The electronic state is 1-A'.
 Alpha  occ. eigenvalues --  -15.43519 -11.18023  -1.14901  -0.89625  -0.65861
 Alpha  occ. eigenvalues --   -0.58497  -0.55827  -0.51806  -0.35587
 Alpha virt. eigenvalues --    0.27258   0.31340   0.32545   0.37011   0.42351
 Alpha virt. eigenvalues --    0.46120   0.93653   0.97464   0.99355   1.26718
 Alpha virt. eigenvalues --    1.31066   1.32971   1.33715   1.38049   1.49517
 Alpha virt. eigenvalues --    1.68082   1.69316   1.96066   2.79552
          Condensed to atoms (all electrons):
               1          2          3          4          5          6
     1  C    5.077591   0.249603   0.374471   0.373509   0.373509  -0.041547
     2  N    0.249603   6.991131  -0.044770  -0.035382  -0.035382   0.343881
     3  H    0.374471  -0.044770   0.543810  -0.039507  -0.039507   0.001991
     4  H    0.373509  -0.035382  -0.039507   0.543483  -0.025831   0.002620
     5  H    0.373509  -0.035382  -0.039507  -0.025831   0.543483  -0.005586
     6  H   -0.041547   0.343881   0.001991   0.002620  -0.005586   0.429291
     7  H   -0.041547   0.343881   0.001991  -0.005586   0.002620  -0.032470
               7
     1  C   -0.041547
     2  N    0.343881
     3  H    0.001991
     4  H   -0.005586
     5  H    0.002620
     6  H   -0.032470
     7  H    0.429291
 Mulliken charges:
               1
     1  C   -0.365590
     2  N   -0.812963
     3  H    0.201521
     4  H    0.186695
     5  H    0.186695
     6  H    0.301820
     7  H    0.301820
 Sum of Mulliken charges =  -0.00000
 Mulliken charges with hydrogens summed into heavy atoms:
               1
     1  C    0.209322
     2  N   -0.209322
 Electronic spatial extent (au):  <R**2>=             95.2720
 Charge=             -0.0000 electrons
 Dipole moment (field-independent basis, Debye):
    X=              1.4349    Y=              0.2749    Z=             -0.0000  Tot=              1.4610
 Quadrupole moment (field-independent basis, Debye-Ang):
   XX=            -15.0445   YY=            -13.1404   ZZ=            -12.3520
   XY=             -1.7606   XZ=              0.0000   YZ=              0.0000
 Traceless Quadrupole moment (field-independent basis, Debye-Ang):
   XX=             -1.5322   YY=              0.3719   ZZ=              1.1603
   XY=             -1.7606   XZ=              0.0000   YZ=              0.0000
 Octapole moment (field-independent basis, Debye-Ang**2):
  XXX=              0.5496  YYY=             -3.7975  ZZZ=              0.0000  XYY=              2.2882
  XXY=              0.2061  XXZ=             -0.0000  XZZ=              1.3934  YZZ=             -2.6128
  YYZ=             -0.0000  XYZ=             -0.0000
 Hexadecapole moment (field-independent basis, Debye-Ang**3):
 XXXX=            -20.7782 YYYY=            -71.6675 ZZZZ=            -21.5571 XXXY=              0.0992
 XXXZ=              0.0000 YYYX=             -1.2191 YYYZ=             -0.0000 ZZZX=             -0.0000
 ZZZY=              0.0000 XXYY=            -15.9678 XXZZ=             -7.1393 YYZZ=            -13.3711
 XXYZ=              0.0000 YYXZ=              0.0000 ZZXY=              0.0951
 N-N= 4.198367230128D+01 E-N=-3.051105157663D+02  KE= 9.445910477005D+01
 Symmetry A'   KE= 8.995138340539D+01
 Symmetry A"   KE= 4.507721364667D+00
 Running external command "gaunbo6 R"
         input file       "/scr/ericg/reopt-ecl/Gau-12598.EIn"
         output file      "/scr/ericg/reopt-ecl/Gau-12598.EOu"
         message file     "/scr/ericg/reopt-ecl/Gau-12598.EMs"
         fchk file        "/scr/ericg/reopt-ecl/Gau-12598.EFC"
         mat. el file     "/scr/ericg/reopt-ecl/Gau-12598.EUF"

 Writing WrtUnf unformatted file "/scr/ericg/reopt-ecl/Gau-12598.EUF"
 Gaussian matrix elements                                         Version   2 NLab=11 Len12L=8 Len4L=8
 Write SHELL TO ATOM MAP                   from file     0 offset           0 length                  16 to matrix element file.
 Write SHELL TYPES                         from file     0 offset           0 length                  16 to matrix element file.
 Write NUMBER OF PRIMITIVES PER SHELL      from file     0 offset           0 length                  16 to matrix element file.
 Write PRIMITIVE EXPONENTS                 from file     0 offset           0 length                  27 to matrix element file.
 Write CONTRACTION COEFFICIENTS            from file     0 offset           0 length                  27 to matrix element file.
 Write P(S=P) CONTRACTION COEFFICIENTS     from file     0 offset           0 length                  27 to matrix element file.
 Write COORDINATES OF EACH SHELL           from file     0 offset           0 length                  48 to matrix element file.
 Write BONDS PER ATOM                      from file     0 offset           0 length                   7 to matrix element file.
 Write BONDED ATOMS                        from file     0 offset           0 length                  12 to matrix element file.
 Write BOND TYPES                          from file     0 offset           0 length                  12 to matrix element file.
 Write GAUSSIAN SCALARS                    from file   501 offset           0 to matrix element file.
 Write INTEGER ISO                         from file     0 offset           0 length                   7 to matrix element file.
 Write INTEGER SPIN                        from file     0 offset           0 length                   7 to matrix element file.
 Write REAL ZEFFECTIVE                     from file     0 offset           0 length                   7 to matrix element file.
 Write REAL QUADRUPOLEMOMENT               from file     0 offset           0 length                   7 to matrix element file.
 Write REAL GFACTOR                        from file     0 offset           0 length                   7 to matrix element file.
 Write REAL ZNUCLEAR                       from file     0 offset           0 length                   7 to matrix element file.
 Write MULLIKEN CHARGES                    from file     0 offset           0 length                   7 to matrix element file.
 Write NUCLEAR GRADIENT                    from file 10584 offset           0 length                  21 to matrix element file.
 Array NUCLEAR FORCE CONSTANTS              on  file 10585 does not exist.
 Write ELECTRIC DIPOLE MOMENT              from file     0 offset           0 length                   3 to matrix element file.
 Write NON-ADIABATIC COUPLING              from file 10810 offset           0 length                  21 to matrix element file.
 Write OVERLAP                             from file 10514 offset           0 length                 406 to matrix element file.
 Write CORE HAMILTONIAN ALPHA              from file 10515 offset           0 length                 406 to matrix element file.
 Write CORE HAMILTONIAN BETA               from file 10515 offset         406 length                 406 to matrix element file.
 Write KINETIC ENERGY                      from file 10516 offset           0 length                 406 to matrix element file.
 Write ORTHOGONAL BASIS                    from file 10685 offset           0 length                 784 to matrix element file.
 Write DIPOLE INTEGRALS                    from file 10518 offset           0 length                1218 to matrix element file.
 Array DIP VEL INTEGRALS                    on  file 10572 does not exist.
 Array R X DEL INTEGRALS                    on  file 10572 does not exist.
 Write ALPHA ORBITAL ENERGIES              from file     0 offset           0 length                  28 to matrix element file.
 Write ALPHA MO COEFFICIENTS               from file 10524 offset           0 length                 784 to matrix element file.
 Write ALPHA DENSITY MATRIX                from file     0 offset           0 length                 406 to matrix element file.
 Write ALPHA SCF DENSITY MATRIX            from file 10528 offset           0 length                 406 to matrix element file.
 Write ALPHA FOCK MATRIX                   from file 10536 offset           0 length                 406 to matrix element file.
 Write ALPHA SCF DENSITY                   from file     0 offset           0 length                 406 to matrix element file.
 No 2e integrals to process.
 Perform NBO analysis...executing G16NBO...


 NATURAL BOND ORBITALS (Summary):

                                                     Principal Delocalizations
           NBO                 Occupancy    Energy   (geminal,vicinal,remote)
 ===============================================================================
 Molecular unit  1  (CH5N)
 ------ Lewis --------------------------------------
    1. CR ( 1) C  1             1.99978   -11.17812  18(g)
    2. CR ( 1) N  2             1.99984   -15.42302  22(g)
    3. LP ( 1) N  2             1.97370    -0.38895  11(v),12(v),13(v)
    4. BD ( 1) C  1- N  2       1.99888    -0.80499
    5. BD ( 1) C  1- H  3       1.99638    -0.64587  20(v),14(v),15(v)
    6. BD ( 1) C  1- H  4       1.99599    -0.65653  14(v)
    7. BD ( 1) C  1- H  5       1.99599    -0.65653  15(v)
    8. BD ( 1) N  2- H  6       1.99630    -0.77622  12(v),16(v),13(v)
    9. BD ( 1) N  2- H  7       1.99630    -0.77622  13(v),16(v),12(v)
 ------ non-Lewis ----------------------------------
   10. BD*( 1) C  1- N  2       0.00010     0.57688
   11. BD*( 1) C  1- H  3       0.01655     0.71994
   12. BD*( 1) C  1- H  4       0.00731     0.70466
   13. BD*( 1) C  1- H  5       0.00731     0.70466
   14. BD*( 1) N  2- H  6       0.00328     0.71869
   15. BD*( 1) N  2- H  7       0.00328     0.71869
   16. RY ( 1) C  1             0.00086     1.03513
   17. RY ( 2) C  1             0.00078     0.97832
   18. RY ( 3) C  1             0.00015     1.87645
   19. RY ( 4) C  1             0.00001     1.05032
   20. RY ( 1) N  2             0.00140     1.47904
   21. RY ( 2) N  2             0.00050     1.66002
   22. RY ( 3) N  2             0.00031     2.29731
   23. RY ( 4) N  2             0.00001     2.01435
   24. RY ( 1) H  3             0.00126     0.94710
   25. RY ( 1) H  4             0.00103     0.94185
   26. RY ( 1) H  5             0.00103     0.94185
   27. RY ( 1) H  6             0.00085     0.96311
   28. RY ( 1) H  7             0.00085     0.96311
          -------------------------------
                 Total Lewis   17.95315  ( 99.7397%)
           Valence non-Lewis    0.03781  (  0.2101%)
           Rydberg non-Lewis    0.00904  (  0.0502%)
          -------------------------------
               Total unit  1   18.00000  (100.0000%)
              Charge unit  1    0.00000

 $CHOOSE
   LONE 2 1 END
   BOND S 1 2 S 1 3 S 1 4 S 1 5 S 2 6 S 2 7 END
 $END
 Maximum scratch memory used by G16NBO was 9478 words (0.07 MB)


 LEWIS: Delete all non-Lewis NBOs
 Deletion of the following orbitals from the NBO Fock matrix:
   10  11  12  13  14  15  16  17  18  19  20  21  22  23  24  25  26  27  28

 Orbital occupancies:

       Orbital                         No deletions  This deletion    Change
 ------------------------------------------------------------------------------
    1. CR ( 1) C  1                      1.99978        2.00000       0.00022
    2. CR ( 1) N  2                      1.99984        2.00000       0.00016
    3. LP ( 1) N  2                      1.97370        2.00000       0.02630
    4. BD ( 1) C  1- N  2                1.99888        2.00000       0.00112
    5. BD ( 1) C  1- H  3                1.99638        2.00000       0.00362
    6. BD ( 1) C  1- H  4                1.99599        2.00000       0.00401
    7. BD ( 1) C  1- H  5                1.99599        2.00000       0.00401
    8. BD ( 1) N  2- H  6                1.99630        2.00000       0.00370
    9. BD ( 1) N  2- H  7                1.99630        2.00000       0.00370
   10. BD*( 1) C  1- N  2                0.00010        0.00000      -0.00010
   11. BD*( 1) C  1- H  3                0.01655        0.00000      -0.01655
   12. BD*( 1) C  1- H  4                0.00731        0.00000      -0.00731
   13. BD*( 1) C  1- H  5                0.00731        0.00000      -0.00731
   14. BD*( 1) N  2- H  6                0.00328        0.00000      -0.00328
   15. BD*( 1) N  2- H  7                0.00328        0.00000      -0.00328
   16. RY ( 1) C  1                      0.00086        0.00000      -0.00086
   17. RY ( 2) C  1                      0.00078        0.00000      -0.00078
   18. RY ( 3) C  1                      0.00015        0.00000      -0.00015
   19. RY ( 4) C  1                      0.00001        0.00000      -0.00001
   20. RY ( 1) N  2                      0.00140        0.00000      -0.00140
   21. RY ( 2) N  2                      0.00050        0.00000      -0.00050
   22. RY ( 3) N  2                      0.00031        0.00000      -0.00031
   23. RY ( 4) N  2                      0.00001        0.00000      -0.00001
   24. RY ( 1) H  3                      0.00126        0.00000      -0.00126
   25. RY ( 1) H  4                      0.00103        0.00000      -0.00103
   26. RY ( 1) H  5                      0.00103        0.00000      -0.00103
   27. RY ( 1) H  6                      0.00085        0.00000      -0.00085
   28. RY ( 1) H  7                      0.00085        0.00000      -0.00085

 NEXT STEP:  Perform one SCF cycle to evaluate the energy of the new density
             matrix constructed from the deleted NBO Fock matrix.

 ------------------------------------------------------------------------------
 Opening RunExU unformatted file "/scr/ericg/reopt-ecl/Gau-12598.EUF"
 Read unf file /scr/ericg/reopt-ecl/Gau-12598.EUF:
 Label Gaussian matrix elements                                         IVers= 1 NLab= 2 Version=ES64L-G16RevB.01
 Title Eclipsed Methylamine...reoptimization with LEWIS deletions      
 NAtoms=     7 NBasis=    28 NBsUse=    28 ICharg=     0 Multip=     1 NE=    18 Len12L=8 Len4L=8 IOpCl= 0 ICGU= -1
 GAUSSIAN SCALARS                    NI= 1 NR= 1 NTot=       1 LenBuf=    2 NRI=1 N=    1000
 ALPHA DENSITY MATRIX                NI= 0 NR= 1 NTot=     406 LenBuf= 4000 NRI=1 N=     -28      28
 Store file  10528 Len=     406.
 ALPHA MO COEFFICIENTS               NI= 0 NR= 1 NTot=     784 LenBuf= 4000 NRI=1 N=      28      28
 Store file  10524 Len=     784.
 NPA CHARGES                         NI= 0 NR= 1 NTot=       7 LenBuf= 4000 NRI=1 N=       7
 Recovered energy= -94.6784969932     dipole=      0.564527849935      0.108143210430     -0.000000000000
 Keep R1 ints in memory in symmetry-blocked form, NReq=892273.
 Requested convergence on RMS density matrix=1.00D-08 within   1 cycles.
 Requested convergence on MAX density matrix=1.00D-06.
 Requested convergence on             energy=1.00D-06.
 No special actions if energy rises.
 Fock symm off for IB=2 I1=    1 I=   21 J=    9 Cut=1.00D-07 Err=3.50D-02
 Fock matrix is not symmetric: symmetry in diagonalization turned off.
 >>>>>>>>>> Convergence criterion not met.
 SCF Done:  E(RHF) =  -94.6304183720     A.U. after    2 cycles
            NFock=  1  Conv=0.89D-02     -V/T= 2.0022
 Running external command "gaunbo6 R"
         input file       "/scr/ericg/reopt-ecl/Gau-12598.EIn"
         output file      "/scr/ericg/reopt-ecl/Gau-12598.EOu"
         message file     "/scr/ericg/reopt-ecl/Gau-12598.EMs"
         fchk file        "/scr/ericg/reopt-ecl/Gau-12598.EFC"
         mat. el file     "/scr/ericg/reopt-ecl/Gau-12598.EUF"

 Writing WrtUnf unformatted file "/scr/ericg/reopt-ecl/Gau-12598.EUF"
 Gaussian matrix elements                                         Version   2 NLab=11 Len12L=8 Len4L=8
 Write SHELL TO ATOM MAP                   from file     0 offset           0 length                  16 to matrix element file.
 Write SHELL TYPES                         from file     0 offset           0 length                  16 to matrix element file.
 Write NUMBER OF PRIMITIVES PER SHELL      from file     0 offset           0 length                  16 to matrix element file.
 Write PRIMITIVE EXPONENTS                 from file     0 offset           0 length                  27 to matrix element file.
 Write CONTRACTION COEFFICIENTS            from file     0 offset           0 length                  27 to matrix element file.
 Write P(S=P) CONTRACTION COEFFICIENTS     from file     0 offset           0 length                  27 to matrix element file.
 Write COORDINATES OF EACH SHELL           from file     0 offset           0 length                  48 to matrix element file.
 Write BONDS PER ATOM                      from file     0 offset           0 length                   7 to matrix element file.
 Write BONDED ATOMS                        from file     0 offset           0 length                  12 to matrix element file.
 Write BOND TYPES                          from file     0 offset           0 length                  12 to matrix element file.
 Write GAUSSIAN SCALARS                    from file   501 offset           0 to matrix element file.
 Write INTEGER ISO                         from file     0 offset           0 length                   7 to matrix element file.
 Write INTEGER SPIN                        from file     0 offset           0 length                   7 to matrix element file.
 Write REAL ZEFFECTIVE                     from file     0 offset           0 length                   7 to matrix element file.
 Write REAL QUADRUPOLEMOMENT               from file     0 offset           0 length                   7 to matrix element file.
 Write REAL GFACTOR                        from file     0 offset           0 length                   7 to matrix element file.
 Write REAL ZNUCLEAR                       from file     0 offset           0 length                   7 to matrix element file.
 Write MULLIKEN CHARGES                    from file     0 offset           0 length                   7 to matrix element file.
 Write NUCLEAR GRADIENT                    from file 10584 offset           0 length                  21 to matrix element file.
 Array NUCLEAR FORCE CONSTANTS              on  file 10585 does not exist.
 Write ELECTRIC DIPOLE MOMENT              from file     0 offset           0 length                   3 to matrix element file.
 Write NON-ADIABATIC COUPLING              from file 10810 offset           0 length                  21 to matrix element file.
 Write OVERLAP                             from file 10514 offset           0 length                 406 to matrix element file.
 Write CORE HAMILTONIAN ALPHA              from file 10515 offset           0 length                 406 to matrix element file.
 Write CORE HAMILTONIAN BETA               from file 10515 offset         406 length                 406 to matrix element file.
 Write KINETIC ENERGY                      from file 10516 offset           0 length                 406 to matrix element file.
 Write ORTHOGONAL BASIS                    from file 10685 offset           0 length                 784 to matrix element file.
 Write DIPOLE INTEGRALS                    from file 10518 offset           0 length                1218 to matrix element file.
 Array DIP VEL INTEGRALS                    on  file 10572 does not exist.
 Array R X DEL INTEGRALS                    on  file 10572 does not exist.
 Write ALPHA ORBITAL ENERGIES              from file     0 offset           0 length                  28 to matrix element file.
 Write ALPHA MO COEFFICIENTS               from file 10524 offset           0 length                 784 to matrix element file.
 Write ALPHA DENSITY MATRIX                from file     0 offset           0 length                 406 to matrix element file.
 Write ALPHA SCF DENSITY MATRIX            from file 10528 offset           0 length                 406 to matrix element file.
 Write ALPHA FOCK MATRIX                   from file 10536 offset           0 length                 406 to matrix element file.
 Write ALPHA SCF DENSITY                   from file     0 offset           0 length                 406 to matrix element file.
 No 2e integrals to process.
 Perform NBO analysis...executing G16NBO...

 ------------------------------------------------------------------------------
   Energy of deletion :        -94.630418372
     Total SCF energy :        -94.678496993
                          -------------------
        Energy change :          0.048079 a.u.,          30.170 kcal/mol
 ------------------------------------------------------------------------------

 Opening RunExU unformatted file "/scr/ericg/reopt-ecl/Gau-12598.EUF"
 Read unf file /scr/ericg/reopt-ecl/Gau-12598.EUF:
 Label Gaussian matrix elements                                         IVers= 1 NLab= 2 Version=ES64L-G16RevB.01
 Title Eclipsed Methylamine...reoptimization with LEWIS deletions      
 NAtoms=     7 NBasis=    28 NBsUse=    28 ICharg=     0 Multip=     1 NE=    18 Len12L=8 Len4L=8 IOpCl= 0 ICGU= -1
 GAUSSIAN SCALARS                    NI= 1 NR= 1 NTot=       1 LenBuf=    2 NRI=1 N=    1000
 Recovered energy= -94.6304183720     dipole=      0.564527849935      0.108143210430     -0.000000000000

 NEF-NEF-NEF-NEF-NEF-NEF-NEF-NEF-NEF-NEF-NEF-NEF-NEF-NEF-NEF-NEF-NEF-NEF-
 NUMERICAL EIGENVECTOR FOLLOWING MINIMUM SEARCH
 NUMERICALLY ESTIMATING GRADIENTS
 ITERATION   0 VARIABLE  1 STEP  1

 NEF-NEF-NEF-NEF-NEF-NEF-NEF-NEF-NEF-NEF-NEF-NEF-NEF-NEF-NEF-NEF-NEF-NEF-
 ---------------------------------------------------------------------------------------------------
                            Z-MATRIX (ANGSTROMS AND DEGREES)
   CD    Cent   Atom    N1       Length/X        N2       Alpha/Y        N3        Beta/Z          J
 ---------------------------------------------------------------------------------------------------
      1      1  C 
      2      2  N        1   1.472242(     1)
      3      3  H        1   1.083900(     2)      2  111.232(     7)
      4      4  H        1   1.085100(     3)      2  111.163(     8)      3  120.261(    12)      0
      5      5  H        1   1.085100(     4)      2  111.163(     9)      3 -120.261(    13)      0
      6      6  H        2   0.999500(     5)      1  115.458(    10)      3  112.734(    14)      0
      7      7  H        2   0.999500(     6)      1  115.458(    11)      3 -112.734(    15)      0
 ---------------------------------------------------------------------------------------------------
                         Z-Matrix orientation:                         
 ---------------------------------------------------------------------
 Center     Atomic      Atomic             Coordinates (Angstroms)
 Number     Number       Type             X           Y           Z
 ---------------------------------------------------------------------
      1          6           0        0.000000    0.000000    0.000000
      2          7           0        0.000000    0.000000    1.472242
      3          1           0        1.010325    0.000000   -0.392533
      4          1           0       -0.509943   -0.874036   -0.391742
      5          1           0       -0.509943    0.874036   -0.391742
      6          1           0       -0.348752    0.832342    1.901869
      7          1           0       -0.348752   -0.832342    1.901869
 ---------------------------------------------------------------------
                    Distance matrix (angstroms):
                    1          2          3          4          5
     1  C    0.000000
     2  N    1.472242   0.000000
     3  H    1.083900   2.120883   0.000000
     4  H    1.085100   2.120947   1.753612   0.000000
     5  H    1.085100   2.120947   1.753612   1.748071   0.000000
     6  H    2.105119   0.999500   2.793593   2.863277   2.299646
     7  H    2.105119   0.999500   2.793593   2.299646   2.863277
                    6          7
     6  H    0.000000
     7  H    1.664684   0.000000
 Stoichiometry    CH5N
 Framework group  CS[SG(CHN),X(H4)]
 Deg. of freedom     9
 Full point group                 CS      NOp   2
 Largest Abelian subgroup         CS      NOp   2
 Largest concise Abelian subgroup CS      NOp   2
                         Standard orientation:                         
 ---------------------------------------------------------------------
 Center     Atomic      Atomic             Coordinates (Angstroms)
 Number     Number       Type             X           Y           Z
 ---------------------------------------------------------------------
      1          6           0       -0.039281    0.718523    0.000000
      2          7           0       -0.039281   -0.753719    0.000000
      3          1           0       -1.049607    1.111056    0.000000
      4          1           0        0.470662    1.110265    0.874036
      5          1           0        0.470662    1.110265   -0.874036
      6          1           0        0.309470   -1.183346   -0.832342
      7          1           0        0.309470   -1.183346    0.832342
 ---------------------------------------------------------------------
 Rotational constants (GHZ):         107.8913422          22.5076240          21.3762718
 Standard basis: 3-21G (6D, 7F)
 There are    20 symmetry adapted cartesian basis functions of A'  symmetry.
 There are     8 symmetry adapted cartesian basis functions of A"  symmetry.
 There are    20 symmetry adapted basis functions of A'  symmetry.
 There are     8 symmetry adapted basis functions of A"  symmetry.
    28 basis functions,    45 primitive gaussians,    28 cartesian basis functions
     9 alpha electrons        9 beta electrons
       nuclear repulsion energy        41.9788339421 Hartrees.
 NAtoms=    7 NActive=    7 NUniq=    5 SFac= 1.96D+00 NAtFMM=   60 NAOKFM=F Big=F
 Integral buffers will be    131072 words long.
 Raffenetti 1 integral format.
 Two-electron integral symmetry is turned on.
 One-electron integrals computed using PRISM.
 NBasis=    28 RedAO= T EigKep=  2.63D-02  NBF=    20     8
 NBsUse=    28 1.00D-06 EigRej= -1.00D+00 NBFU=    20     8
 Initial guess from the checkpoint file:  "/scr/ericg/reopt-ecl/Gau-12598.chk"
 B after Tr=     0.000000   -0.000000   -0.000000
         Rot=    1.000000    0.000000   -0.000000    0.000004 Ang=   0.00 deg.
 Initial guess orbital symmetries:
       Occupied  (A') (A') (A') (A') (A") (A') (A') (A") (A')
       Virtual   (A') (A") (A') (A') (A") (A') (A") (A') (A') (A')
                 (A") (A') (A') (A") (A') (A') (A") (A') (A')
 ExpMin= 1.83D-01 ExpMax= 2.43D+02 ExpMxC= 2.43D+02 IAcc=3 IRadAn=         5 AccDes= 0.00D+00
 Harris functional with IExCor=  205 and IRadAn=       5 diagonalized for initial guess.
 HarFok:  IExCor=  205 AccDes= 0.00D+00 IRadAn=         5 IDoV= 1 UseB2=F ITyADJ=14
 ICtDFT=  3500011 ScaDFX=  1.000000  1.000000  1.000000  1.000000
 FoFCou: FMM=F IPFlag=           0 FMFlag=      100000 FMFlg1=           0
         NFxFlg=           0 DoJE=T BraDBF=F KetDBF=T FulRan=T
         wScrn=  0.000000 ICntrl=       500 IOpCl=  0 I1Cent=   200000004 NGrid=           0
         NMat0=    1 NMatS0=      1 NMatT0=    0 NMatD0=    1 NMtDS0=    0 NMtDT0=    0
 Petite list used in FoFCou.
 Keep R1 ints in memory in symmetry-blocked form, NReq=892330.
 Requested convergence on RMS density matrix=1.00D-08 within 128 cycles.
 Requested convergence on MAX density matrix=1.00D-06.
 Requested convergence on             energy=1.00D-06.
 No special actions if energy rises.
 SCF Done:  E(RHF) =  -94.6784970399     A.U. after   10 cycles
            NFock= 10  Conv=0.61D-08     -V/T= 2.0023

 **********************************************************************

            Population analysis using the SCF Density.

 **********************************************************************

 Orbital symmetries:
       Occupied  (A') (A') (A') (A') (A") (A') (A') (A") (A')
       Virtual   (A') (A") (A') (A') (A") (A') (A") (A') (A') (A')
                 (A") (A') (A') (A") (A') (A') (A") (A') (A')
 The electronic state is 1-A'.
 Alpha  occ. eigenvalues --  -15.43521 -11.18026  -1.14891  -0.89628  -0.65856
 Alpha  occ. eigenvalues --   -0.58491  -0.55820  -0.51810  -0.35589
 Alpha virt. eigenvalues --    0.27258   0.31343   0.32542   0.37008   0.42348
 Alpha virt. eigenvalues --    0.46107   0.93648   0.97459   0.99349   1.26718
 Alpha virt. eigenvalues --    1.31069   1.32970   1.33714   1.38045   1.49517
 Alpha virt. eigenvalues --    1.68086   1.69314   1.96068   2.79532
          Condensed to atoms (all electrons):
               1          2          3          4          5          6
     1  C    5.077647   0.249721   0.374456   0.373482   0.373482  -0.041527
     2  N    0.249721   6.990861  -0.044726  -0.035351  -0.035351   0.343860
     3  H    0.374456  -0.044726   0.543748  -0.039501  -0.039501   0.001989
     4  H    0.373482  -0.035351  -0.039501   0.543455  -0.025838   0.002617
     5  H    0.373482  -0.035351  -0.039501  -0.025838   0.543455  -0.005577
     6  H   -0.041527   0.343860   0.001989   0.002617  -0.005577   0.429298
     7  H   -0.041527   0.343860   0.001989  -0.005577   0.002617  -0.032475
               7
     1  C   -0.041527
     2  N    0.343860
     3  H    0.001989
     4  H   -0.005577
     5  H    0.002617
     6  H   -0.032475
     7  H    0.429298
 Mulliken charges:
               1
     1  C   -0.365732
     2  N   -0.812875
     3  H    0.201546
     4  H    0.186715
     5  H    0.186715
     6  H    0.301815
     7  H    0.301815
 Sum of Mulliken charges =  -0.00000
 Mulliken charges with hydrogens summed into heavy atoms:
               1
     1  C    0.209244
     2  N   -0.209244
 Electronic spatial extent (au):  <R**2>=             95.2899
 Charge=             -0.0000 electrons
 Dipole moment (field-independent basis, Debye):
    X=              1.4348    Y=              0.2755    Z=             -0.0000  Tot=              1.4610
 Quadrupole moment (field-independent basis, Debye-Ang):
   XX=            -15.0447   YY=            -13.1391   ZZ=            -12.3522
   XY=             -1.7610   XZ=              0.0000   YZ=             -0.0000
 Traceless Quadrupole moment (field-independent basis, Debye-Ang):
   XX=             -1.5327   YY=              0.3729   ZZ=              1.1598
   XY=             -1.7610   XZ=              0.0000   YZ=             -0.0000
 Octapole moment (field-independent basis, Debye-Ang**2):
  XXX=              0.5492  YYY=             -3.7974  ZZZ=              0.0000  XYY=              2.2885
  XXY=              0.2069  XXZ=             -0.0000  XZZ=              1.3934  YZZ=             -2.6127
  YYZ=              0.0000  XYZ=              0.0000
 Hexadecapole moment (field-independent basis, Debye-Ang**3):
 XXXX=            -20.7778 YYYY=            -71.6880 ZZZZ=            -21.5572 XXXY=              0.0988
 XXXZ=              0.0000 YYYX=             -1.2203 YYYZ=             -0.0000 ZZZX=              0.0000
 ZZZY=             -0.0000 XXYY=            -15.9711 XXZZ=             -7.1393 YYZZ=            -13.3737
 XXYZ=             -0.0000 YYXZ=              0.0000 ZZXY=              0.0952
 N-N= 4.197883394206D+01 E-N=-3.051003960999D+02  KE= 9.445836533169D+01
 Symmetry A'   KE= 8.995069239840D+01
 Symmetry A"   KE= 4.507672933282D+00
 Running external command "gaunbo6 R"
         input file       "/scr/ericg/reopt-ecl/Gau-12598.EIn"
         output file      "/scr/ericg/reopt-ecl/Gau-12598.EOu"
         message file     "/scr/ericg/reopt-ecl/Gau-12598.EMs"
         fchk file        "/scr/ericg/reopt-ecl/Gau-12598.EFC"
         mat. el file     "/scr/ericg/reopt-ecl/Gau-12598.EUF"

 Writing WrtUnf unformatted file "/scr/ericg/reopt-ecl/Gau-12598.EUF"
 Gaussian matrix elements                                         Version   2 NLab=11 Len12L=8 Len4L=8
 Write SHELL TO ATOM MAP                   from file     0 offset           0 length                  16 to matrix element file.
 Write SHELL TYPES                         from file     0 offset           0 length                  16 to matrix element file.
 Write NUMBER OF PRIMITIVES PER SHELL      from file     0 offset           0 length                  16 to matrix element file.
 Write PRIMITIVE EXPONENTS                 from file     0 offset           0 length                  27 to matrix element file.
 Write CONTRACTION COEFFICIENTS            from file     0 offset           0 length                  27 to matrix element file.
 Write P(S=P) CONTRACTION COEFFICIENTS     from file     0 offset           0 length                  27 to matrix element file.
 Write COORDINATES OF EACH SHELL           from file     0 offset           0 length                  48 to matrix element file.
 Write BONDS PER ATOM                      from file     0 offset           0 length                   7 to matrix element file.
 Write BONDED ATOMS                        from file     0 offset           0 length                  12 to matrix element file.
 Write BOND TYPES                          from file     0 offset           0 length                  12 to matrix element file.
 Write GAUSSIAN SCALARS                    from file   501 offset           0 to matrix element file.
 Write INTEGER ISO                         from file     0 offset           0 length                   7 to matrix element file.
 Write INTEGER SPIN                        from file     0 offset           0 length                   7 to matrix element file.
 Write REAL ZEFFECTIVE                     from file     0 offset           0 length                   7 to matrix element file.
 Write REAL QUADRUPOLEMOMENT               from file     0 offset           0 length                   7 to matrix element file.
 Write REAL GFACTOR                        from file     0 offset           0 length                   7 to matrix element file.
 Write REAL ZNUCLEAR                       from file     0 offset           0 length                   7 to matrix element file.
 Write MULLIKEN CHARGES                    from file     0 offset           0 length                   7 to matrix element file.
 Write NUCLEAR GRADIENT                    from file 10584 offset           0 length                  21 to matrix element file.
 Array NUCLEAR FORCE CONSTANTS              on  file 10585 does not exist.
 Write ELECTRIC DIPOLE MOMENT              from file     0 offset           0 length                   3 to matrix element file.
 Write NON-ADIABATIC COUPLING              from file 10810 offset           0 length                  21 to matrix element file.
 Write OVERLAP                             from file 10514 offset           0 length                 406 to matrix element file.
 Write CORE HAMILTONIAN ALPHA              from file 10515 offset           0 length                 406 to matrix element file.
 Write CORE HAMILTONIAN BETA               from file 10515 offset         406 length                 406 to matrix element file.
 Write KINETIC ENERGY                      from file 10516 offset           0 length                 406 to matrix element file.
 Write ORTHOGONAL BASIS                    from file 10685 offset           0 length                 784 to matrix element file.
 Write DIPOLE INTEGRALS                    from file 10518 offset           0 length                1218 to matrix element file.
 Array DIP VEL INTEGRALS                    on  file 10572 does not exist.
 Array R X DEL INTEGRALS                    on  file 10572 does not exist.
 Write ALPHA ORBITAL ENERGIES              from file     0 offset           0 length                  28 to matrix element file.
 Write ALPHA MO COEFFICIENTS               from file 10524 offset           0 length                 784 to matrix element file.
 Write ALPHA DENSITY MATRIX                from file     0 offset           0 length                 406 to matrix element file.
 Write ALPHA SCF DENSITY MATRIX            from file 10528 offset           0 length                 406 to matrix element file.
 Write ALPHA FOCK MATRIX                   from file 10536 offset           0 length                 406 to matrix element file.
 Write ALPHA SCF DENSITY                   from file     0 offset           0 length                 406 to matrix element file.
 No 2e integrals to process.
 Perform NBO analysis...executing G16NBO...


 NATURAL BOND ORBITALS (Summary):

                                                     Principal Delocalizations
           NBO                 Occupancy    Energy   (geminal,vicinal,remote)
 ===============================================================================
 Molecular unit  1  (CH5N)
 ------ Lewis --------------------------------------
    1. CR ( 1) C  1             1.99978   -11.17815  18(g)
    2. CR ( 1) N  2             1.99984   -15.42303  22(g)
    3. LP ( 1) N  2             1.97373    -0.38896  11(v),12(v),13(v)
    4. BD ( 1) C  1- N  2       1.99888    -0.80472
    5. BD ( 1) C  1- H  3       1.99639    -0.64590  20(v),14(v),15(v)
    6. BD ( 1) C  1- H  4       1.99599    -0.65655  14(v)
    7. BD ( 1) C  1- H  5       1.99599    -0.65655  15(v)
    8. BD ( 1) N  2- H  6       1.99630    -0.77623  12(v),16(v),13(v)
    9. BD ( 1) N  2- H  7       1.99630    -0.77623  13(v),16(v),12(v)
 ------ non-Lewis ----------------------------------
   10. BD*( 1) C  1- N  2       0.00010     0.57646
   11. BD*( 1) C  1- H  3       0.01653     0.71993
   12. BD*( 1) C  1- H  4       0.00730     0.70465
   13. BD*( 1) C  1- H  5       0.00730     0.70465
   14. BD*( 1) N  2- H  6       0.00327     0.71870
   15. BD*( 1) N  2- H  7       0.00327     0.71870
   16. RY ( 1) C  1             0.00086     1.03514
   17. RY ( 2) C  1             0.00078     0.97851
   18. RY ( 3) C  1             0.00015     1.87672
   19. RY ( 4) C  1             0.00001     1.05004
   20. RY ( 1) N  2             0.00140     1.47905
   21. RY ( 2) N  2             0.00050     1.65997
   22. RY ( 3) N  2             0.00031     2.29682
   23. RY ( 4) N  2             0.00001     2.01473
   24. RY ( 1) H  3             0.00126     0.94706
   25. RY ( 1) H  4             0.00103     0.94182
   26. RY ( 1) H  5             0.00103     0.94182
   27. RY ( 1) H  6             0.00085     0.96310
   28. RY ( 1) H  7             0.00085     0.96310
          -------------------------------
                 Total Lewis   17.95320  ( 99.7400%)
           Valence non-Lewis    0.03776  (  0.2098%)
           Rydberg non-Lewis    0.00903  (  0.0502%)
          -------------------------------
               Total unit  1   18.00000  (100.0000%)
              Charge unit  1    0.00000

 $CHOOSE
   LONE 2 1 END
   BOND S 1 2 S 1 3 S 1 4 S 1 5 S 2 6 S 2 7 END
 $END
 Maximum scratch memory used by G16NBO was 9478 words (0.07 MB)


 LEWIS: Delete all non-Lewis NBOs
 Deletion of the following orbitals from the NBO Fock matrix:
   10  11  12  13  14  15  16  17  18  19  20  21  22  23  24  25  26  27  28

 Orbital occupancies:

       Orbital                         No deletions  This deletion    Change
 ------------------------------------------------------------------------------
    1. CR ( 1) C  1                      1.99978        2.00000       0.00022
    2. CR ( 1) N  2                      1.99984        2.00000       0.00016
    3. LP ( 1) N  2                      1.97373        2.00000       0.02627
    4. BD ( 1) C  1- N  2                1.99888        2.00000       0.00112
    5. BD ( 1) C  1- H  3                1.99639        2.00000       0.00361
    6. BD ( 1) C  1- H  4                1.99599        2.00000       0.00401
    7. BD ( 1) C  1- H  5                1.99599        2.00000       0.00401
    8. BD ( 1) N  2- H  6                1.99630        2.00000       0.00370
    9. BD ( 1) N  2- H  7                1.99630        2.00000       0.00370
   10. BD*( 1) C  1- N  2                0.00010        0.00000      -0.00010
   11. BD*( 1) C  1- H  3                0.01653        0.00000      -0.01653
   12. BD*( 1) C  1- H  4                0.00730        0.00000      -0.00730
   13. BD*( 1) C  1- H  5                0.00730        0.00000      -0.00730
   14. BD*( 1) N  2- H  6                0.00327        0.00000      -0.00327
   15. BD*( 1) N  2- H  7                0.00327        0.00000      -0.00327
   16. RY ( 1) C  1                      0.00086        0.00000      -0.00086
   17. RY ( 2) C  1                      0.00078        0.00000      -0.00078
   18. RY ( 3) C  1                      0.00015        0.00000      -0.00015
   19. RY ( 4) C  1                      0.00001        0.00000      -0.00001
   20. RY ( 1) N  2                      0.00140        0.00000      -0.00140
   21. RY ( 2) N  2                      0.00050        0.00000      -0.00050
   22. RY ( 3) N  2                      0.00031        0.00000      -0.00031
   23. RY ( 4) N  2                      0.00001        0.00000      -0.00001
   24. RY ( 1) H  3                      0.00126        0.00000      -0.00126
   25. RY ( 1) H  4                      0.00103        0.00000      -0.00103
   26. RY ( 1) H  5                      0.00103        0.00000      -0.00103
   27. RY ( 1) H  6                      0.00085        0.00000      -0.00085
   28. RY ( 1) H  7                      0.00085        0.00000      -0.00085

 NEXT STEP:  Perform one SCF cycle to evaluate the energy of the new density
             matrix constructed from the deleted NBO Fock matrix.

 ------------------------------------------------------------------------------
 Opening RunExU unformatted file "/scr/ericg/reopt-ecl/Gau-12598.EUF"
 Read unf file /scr/ericg/reopt-ecl/Gau-12598.EUF:
 Label Gaussian matrix elements                                         IVers= 1 NLab= 2 Version=ES64L-G16RevB.01
 Title Eclipsed Methylamine...reoptimization with LEWIS deletions      
 NAtoms=     7 NBasis=    28 NBsUse=    28 ICharg=     0 Multip=     1 NE=    18 Len12L=8 Len4L=8 IOpCl= 0 ICGU= -1
 GAUSSIAN SCALARS                    NI= 1 NR= 1 NTot=       1 LenBuf=    2 NRI=1 N=    1000
 ALPHA DENSITY MATRIX                NI= 0 NR= 1 NTot=     406 LenBuf= 4000 NRI=1 N=     -28      28
 Store file  10528 Len=     406.
 ALPHA MO COEFFICIENTS               NI= 0 NR= 1 NTot=     784 LenBuf= 4000 NRI=1 N=      28      28
 Store file  10524 Len=     784.
 NPA CHARGES                         NI= 0 NR= 1 NTot=       7 LenBuf= 4000 NRI=1 N=       7
 Recovered energy= -94.6784970399     dipole=      0.564496195246      0.108409083575     -0.000000000000
 Keep R1 ints in memory in symmetry-blocked form, NReq=892273.
 Requested convergence on RMS density matrix=1.00D-08 within   1 cycles.
 Requested convergence on MAX density matrix=1.00D-06.
 Requested convergence on             energy=1.00D-06.
 No special actions if energy rises.
 Fock symm off for IB=2 I1=    1 I=   21 J=   10 Cut=1.00D-07 Err=3.50D-02
 Fock matrix is not symmetric: symmetry in diagonalization turned off.
 >>>>>>>>>> Convergence criterion not met.
 SCF Done:  E(RHF) =  -94.6304711357     A.U. after    2 cycles
            NFock=  1  Conv=0.89D-02     -V/T= 2.0022
 Running external command "gaunbo6 R"
         input file       "/scr/ericg/reopt-ecl/Gau-12598.EIn"
         output file      "/scr/ericg/reopt-ecl/Gau-12598.EOu"
         message file     "/scr/ericg/reopt-ecl/Gau-12598.EMs"
         fchk file        "/scr/ericg/reopt-ecl/Gau-12598.EFC"
         mat. el file     "/scr/ericg/reopt-ecl/Gau-12598.EUF"

 Writing WrtUnf unformatted file "/scr/ericg/reopt-ecl/Gau-12598.EUF"
 Gaussian matrix elements                                         Version   2 NLab=11 Len12L=8 Len4L=8
 Write SHELL TO ATOM MAP                   from file     0 offset           0 length                  16 to matrix element file.
 Write SHELL TYPES                         from file     0 offset           0 length                  16 to matrix element file.
 Write NUMBER OF PRIMITIVES PER SHELL      from file     0 offset           0 length                  16 to matrix element file.
 Write PRIMITIVE EXPONENTS                 from file     0 offset           0 length                  27 to matrix element file.
 Write CONTRACTION COEFFICIENTS            from file     0 offset           0 length                  27 to matrix element file.
 Write P(S=P) CONTRACTION COEFFICIENTS     from file     0 offset           0 length                  27 to matrix element file.
 Write COORDINATES OF EACH SHELL           from file     0 offset           0 length                  48 to matrix element file.
 Write BONDS PER ATOM                      from file     0 offset           0 length                   7 to matrix element file.
 Write BONDED ATOMS                        from file     0 offset           0 length                  12 to matrix element file.
 Write BOND TYPES                          from file     0 offset           0 length                  12 to matrix element file.
 Write GAUSSIAN SCALARS                    from file   501 offset           0 to matrix element file.
 Write INTEGER ISO                         from file     0 offset           0 length                   7 to matrix element file.
 Write INTEGER SPIN                        from file     0 offset           0 length                   7 to matrix element file.
 Write REAL ZEFFECTIVE                     from file     0 offset           0 length                   7 to matrix element file.
 Write REAL QUADRUPOLEMOMENT               from file     0 offset           0 length                   7 to matrix element file.
 Write REAL GFACTOR                        from file     0 offset           0 length                   7 to matrix element file.
 Write REAL ZNUCLEAR                       from file     0 offset           0 length                   7 to matrix element file.
 Write MULLIKEN CHARGES                    from file     0 offset           0 length                   7 to matrix element file.
 Write NUCLEAR GRADIENT                    from file 10584 offset           0 length                  21 to matrix element file.
 Array NUCLEAR FORCE CONSTANTS              on  file 10585 does not exist.
 Write ELECTRIC DIPOLE MOMENT              from file     0 offset           0 length                   3 to matrix element file.
 Write NON-ADIABATIC COUPLING              from file 10810 offset           0 length                  21 to matrix element file.
 Write OVERLAP                             from file 10514 offset           0 length                 406 to matrix element file.
 Write CORE HAMILTONIAN ALPHA              from file 10515 offset           0 length                 406 to matrix element file.
 Write CORE HAMILTONIAN BETA               from file 10515 offset         406 length                 406 to matrix element file.
 Write KINETIC ENERGY                      from file 10516 offset           0 length                 406 to matrix element file.
 Write ORTHOGONAL BASIS                    from file 10685 offset           0 length                 784 to matrix element file.
 Write DIPOLE INTEGRALS                    from file 10518 offset           0 length                1218 to matrix element file.
 Array DIP VEL INTEGRALS                    on  file 10572 does not exist.
 Array R X DEL INTEGRALS                    on  file 10572 does not exist.
 Write ALPHA ORBITAL ENERGIES              from file     0 offset           0 length                  28 to matrix element file.
 Write ALPHA MO COEFFICIENTS               from file 10524 offset           0 length                 784 to matrix element file.
 Write ALPHA DENSITY MATRIX                from file     0 offset           0 length                 406 to matrix element file.
 Write ALPHA SCF DENSITY MATRIX            from file 10528 offset           0 length                 406 to matrix element file.
 Write ALPHA FOCK MATRIX                   from file 10536 offset           0 length                 406 to matrix element file.
 Write ALPHA SCF DENSITY                   from file     0 offset           0 length                 406 to matrix element file.
 No 2e integrals to process.
 Perform NBO analysis...executing G16NBO...

 ------------------------------------------------------------------------------
   Energy of deletion :        -94.630471136
     Total SCF energy :        -94.678497040
                          -------------------
        Energy change :          0.048026 a.u.,          30.137 kcal/mol
 ------------------------------------------------------------------------------

 Opening RunExU unformatted file "/scr/ericg/reopt-ecl/Gau-12598.EUF"
 Read unf file /scr/ericg/reopt-ecl/Gau-12598.EUF:
 Label Gaussian matrix elements                                         IVers= 1 NLab= 2 Version=ES64L-G16RevB.01
 Title Eclipsed Methylamine...reoptimization with LEWIS deletions      
 NAtoms=     7 NBasis=    28 NBsUse=    28 ICharg=     0 Multip=     1 NE=    18 Len12L=8 Len4L=8 IOpCl= 0 ICGU= -1
 GAUSSIAN SCALARS                    NI= 1 NR= 1 NTot=       1 LenBuf=    2 NRI=1 N=    1000
 Recovered energy= -94.6304711357     dipole=      0.564496195246      0.108409083575     -0.000000000000

 NEF-NEF-NEF-NEF-NEF-NEF-NEF-NEF-NEF-NEF-NEF-NEF-NEF-NEF-NEF-NEF-NEF-NEF-
 NUMERICAL EIGENVECTOR FOLLOWING MINIMUM SEARCH
 NUMERICALLY ESTIMATING GRADIENTS
 ITERATION   0 VARIABLE  1 STEP  2

 NEF-NEF-NEF-NEF-NEF-NEF-NEF-NEF-NEF-NEF-NEF-NEF-NEF-NEF-NEF-NEF-NEF-NEF-
 ---------------------------------------------------------------------------------------------------
                            Z-MATRIX (ANGSTROMS AND DEGREES)
   CD    Cent   Atom    N1       Length/X        N2       Alpha/Y        N3        Beta/Z          J
 ---------------------------------------------------------------------------------------------------
      1      1  C 
      2      2  N        1   1.471558(     1)
      3      3  H        1   1.083900(     2)      2  111.232(     7)
      4      4  H        1   1.085100(     3)      2  111.163(     8)      3  120.261(    12)      0
      5      5  H        1   1.085100(     4)      2  111.163(     9)      3 -120.261(    13)      0
      6      6  H        2   0.999500(     5)      1  115.458(    10)      3  112.734(    14)      0
      7      7  H        2   0.999500(     6)      1  115.458(    11)      3 -112.734(    15)      0
 ---------------------------------------------------------------------------------------------------
                         Z-Matrix orientation:                         
 ---------------------------------------------------------------------
 Center     Atomic      Atomic             Coordinates (Angstroms)
 Number     Number       Type             X           Y           Z
 ---------------------------------------------------------------------
      1          6           0        0.000000    0.000000    0.000000
      2          7           0        0.000000    0.000000    1.471558
      3          1           0        1.010325    0.000000   -0.392533
      4          1           0       -0.509943   -0.874036   -0.391742
      5          1           0       -0.509943    0.874036   -0.391742
      6          1           0       -0.348752    0.832342    1.901184
      7          1           0       -0.348752   -0.832342    1.901184
 ---------------------------------------------------------------------
                    Distance matrix (angstroms):
                    1          2          3          4          5
     1  C    0.000000
     2  N    1.471558   0.000000
     3  H    1.083900   2.120281   0.000000
     4  H    1.085100   2.120346   1.753612   0.000000
     5  H    1.085100   2.120346   1.753612   1.748071   0.000000
     6  H    2.104501   0.999500   2.793031   2.862729   2.298963
     7  H    2.104501   0.999500   2.793031   2.298963   2.862729
                    6          7
     6  H    0.000000
     7  H    1.664684   0.000000
 Stoichiometry    CH5N
 Framework group  CS[SG(CHN),X(H4)]
 Deg. of freedom     9
 Full point group                 CS      NOp   2
 Largest Abelian subgroup         CS      NOp   2
 Largest concise Abelian subgroup CS      NOp   2
                         Standard orientation:                         
 ---------------------------------------------------------------------
 Center     Atomic      Atomic             Coordinates (Angstroms)
 Number     Number       Type             X           Y           Z
 ---------------------------------------------------------------------
      1          6           0       -0.039281    0.718181   -0.000000
      2          7           0       -0.039281   -0.753377    0.000000
      3          1           0       -1.049607    1.110714   -0.000000
      4          1           0        0.470662    1.109923    0.874036
      5          1           0        0.470662    1.109923   -0.874036
      6          1           0        0.309470   -1.183003   -0.832342
      7          1           0        0.309470   -1.183003    0.832342
 ---------------------------------------------------------------------
 Rotational constants (GHZ):         107.8915962          22.5247102          21.3916729
 Standard basis: 3-21G (6D, 7F)
 There are    20 symmetry adapted cartesian basis functions of A'  symmetry.
 There are     8 symmetry adapted cartesian basis functions of A"  symmetry.
 There are    20 symmetry adapted basis functions of A'  symmetry.
 There are     8 symmetry adapted basis functions of A"  symmetry.
    28 basis functions,    45 primitive gaussians,    28 cartesian basis functions
     9 alpha electrons        9 beta electrons
       nuclear repulsion energy        41.9885126195 Hartrees.
 NAtoms=    7 NActive=    7 NUniq=    5 SFac= 1.96D+00 NAtFMM=   60 NAOKFM=F Big=F
 Integral buffers will be    131072 words long.
 Raffenetti 1 integral format.
 Two-electron integral symmetry is turned on.
 One-electron integrals computed using PRISM.
 NBasis=    28 RedAO= T EigKep=  2.62D-02  NBF=    20     8
 NBsUse=    28 1.00D-06 EigRej= -1.00D+00 NBFU=    20     8
 Initial guess from the checkpoint file:  "/scr/ericg/reopt-ecl/Gau-12598.chk"
 B after Tr=    -0.000000    0.000000    0.000000
         Rot=    1.000000   -0.000000    0.000000   -0.000008 Ang=  -0.00 deg.
 Initial guess orbital symmetries:
       Occupied  (A') (A') (A') (A') (A") (A') (A') (A") (A')
       Virtual   (A') (A") (A') (A') (A") (A') (A") (A') (A') (A')
                 (A") (A') (A') (A") (A') (A') (A") (A') (A')
 ExpMin= 1.83D-01 ExpMax= 2.43D+02 ExpMxC= 2.43D+02 IAcc=3 IRadAn=         5 AccDes= 0.00D+00
 Harris functional with IExCor=  205 and IRadAn=       5 diagonalized for initial guess.
 HarFok:  IExCor=  205 AccDes= 0.00D+00 IRadAn=         5 IDoV= 1 UseB2=F ITyADJ=14
 ICtDFT=  3500011 ScaDFX=  1.000000  1.000000  1.000000  1.000000
 FoFCou: FMM=F IPFlag=           0 FMFlag=      100000 FMFlg1=           0
         NFxFlg=           0 DoJE=T BraDBF=F KetDBF=T FulRan=T
         wScrn=  0.000000 ICntrl=       500 IOpCl=  0 I1Cent=   200000004 NGrid=           0
         NMat0=    1 NMatS0=      1 NMatT0=    0 NMatD0=    1 NMtDS0=    0 NMtDT0=    0
 Petite list used in FoFCou.
 Keep R1 ints in memory in symmetry-blocked form, NReq=892330.
 Requested convergence on RMS density matrix=1.00D-08 within 128 cycles.
 Requested convergence on MAX density matrix=1.00D-06.
 Requested convergence on             energy=1.00D-06.
 No special actions if energy rises.
 SCF Done:  E(RHF) =  -94.6784967971     A.U. after   10 cycles
            NFock= 10  Conv=0.61D-08     -V/T= 2.0023

 **********************************************************************

            Population analysis using the SCF Density.

 **********************************************************************

 Orbital symmetries:
       Occupied  (A') (A') (A') (A') (A") (A') (A') (A") (A')
       Virtual   (A') (A") (A') (A') (A") (A') (A") (A') (A') (A')
                 (A") (A') (A') (A") (A') (A') (A") (A') (A')
 The electronic state is 1-A'.
 Alpha  occ. eigenvalues --  -15.43518 -11.18020  -1.14912  -0.89622  -0.65866
 Alpha  occ. eigenvalues --   -0.58503  -0.55833  -0.51802  -0.35586
 Alpha virt. eigenvalues --    0.27258   0.31337   0.32548   0.37013   0.42353
 Alpha virt. eigenvalues --    0.46134   0.93658   0.97468   0.99362   1.26717
 Alpha virt. eigenvalues --    1.31062   1.32972   1.33716   1.38053   1.49517
 Alpha virt. eigenvalues --    1.68078   1.69319   1.96064   2.79573
          Condensed to atoms (all electrons):
               1          2          3          4          5          6
     1  C    5.077536   0.249486   0.374487   0.373537   0.373537  -0.041567
     2  N    0.249486   6.991402  -0.044813  -0.035414  -0.035414   0.343902
     3  H    0.374487  -0.044813   0.543871  -0.039514  -0.039514   0.001993
     4  H    0.373537  -0.035414  -0.039514   0.543512  -0.025824   0.002623
     5  H    0.373537  -0.035414  -0.039514  -0.025824   0.543512  -0.005595
     6  H   -0.041567   0.343902   0.001993   0.002623  -0.005595   0.429284
     7  H   -0.041567   0.343902   0.001993  -0.005595   0.002623  -0.032465
               7
     1  C   -0.041567
     2  N    0.343902
     3  H    0.001993
     4  H   -0.005595
     5  H    0.002623
     6  H   -0.032465
     7  H    0.429284
 Mulliken charges:
               1
     1  C   -0.365448
     2  N   -0.813051
     3  H    0.201497
     4  H    0.186676
     5  H    0.186676
     6  H    0.301825
     7  H    0.301825
 Sum of Mulliken charges =   0.00000
 Mulliken charges with hydrogens summed into heavy atoms:
               1
     1  C    0.209401
     2  N   -0.209401
 Electronic spatial extent (au):  <R**2>=             95.2540
 Charge=              0.0000 electrons
 Dipole moment (field-independent basis, Debye):
    X=              1.4350    Y=              0.2742    Z=              0.0000  Tot=              1.4609
 Quadrupole moment (field-independent basis, Debye-Ang):
   XX=            -15.0444   YY=            -13.1418   ZZ=            -12.3518
   XY=             -1.7601   XZ=              0.0000   YZ=              0.0000
 Traceless Quadrupole moment (field-independent basis, Debye-Ang):
   XX=             -1.5317   YY=              0.3709   ZZ=              1.1608
   XY=             -1.7601   XZ=              0.0000   YZ=              0.0000
 Octapole moment (field-independent basis, Debye-Ang**2):
  XXX=              0.5499  YYY=             -3.7976  ZZZ=              0.0000  XYY=              2.2878
  XXY=              0.2053  XXZ=              0.0000  XZZ=              1.3934  YZZ=             -2.6129
  YYZ=              0.0000  XYZ=              0.0000
 Hexadecapole moment (field-independent basis, Debye-Ang**3):
 XXXX=            -20.7785 YYYY=            -71.6469 ZZZZ=            -21.5571 XXXY=              0.0997
 XXXZ=             -0.0000 YYYX=             -1.2180 YYYZ=              0.0000 ZZZX=             -0.0000
 ZZZY=              0.0000 XXYY=            -15.9644 XXZZ=             -7.1393 YYZZ=            -13.3684
 XXYZ=              0.0000 YYXZ=             -0.0000 ZZXY=              0.0949
 N-N= 4.198851261954D+01 E-N=-3.051206395360D+02  KE= 9.445984495468D+01
 Symmetry A'   KE= 8.995207510320D+01
 Symmetry A"   KE= 4.507769851482D+00
 Running external command "gaunbo6 R"
         input file       "/scr/ericg/reopt-ecl/Gau-12598.EIn"
         output file      "/scr/ericg/reopt-ecl/Gau-12598.EOu"
         message file     "/scr/ericg/reopt-ecl/Gau-12598.EMs"
         fchk file        "/scr/ericg/reopt-ecl/Gau-12598.EFC"
         mat. el file     "/scr/ericg/reopt-ecl/Gau-12598.EUF"

 Writing WrtUnf unformatted file "/scr/ericg/reopt-ecl/Gau-12598.EUF"
 Gaussian matrix elements                                         Version   2 NLab=11 Len12L=8 Len4L=8
 Write SHELL TO ATOM MAP                   from file     0 offset           0 length                  16 to matrix element file.
 Write SHELL TYPES                         from file     0 offset           0 length                  16 to matrix element file.
 Write NUMBER OF PRIMITIVES PER SHELL      from file     0 offset           0 length                  16 to matrix element file.
 Write PRIMITIVE EXPONENTS                 from file     0 offset           0 length                  27 to matrix element file.
 Write CONTRACTION COEFFICIENTS            from file     0 offset           0 length                  27 to matrix element file.
 Write P(S=P) CONTRACTION COEFFICIENTS     from file     0 offset           0 length                  27 to matrix element file.
 Write COORDINATES OF EACH SHELL           from file     0 offset           0 length                  48 to matrix element file.
 Write BONDS PER ATOM                      from file     0 offset           0 length                   7 to matrix element file.
 Write BONDED ATOMS                        from file     0 offset           0 length                  12 to matrix element file.
 Write BOND TYPES                          from file     0 offset           0 length                  12 to matrix element file.
 Write GAUSSIAN SCALARS                    from file   501 offset           0 to matrix element file.
 Write INTEGER ISO                         from file     0 offset           0 length                   7 to matrix element file.
 Write INTEGER SPIN                        from file     0 offset           0 length                   7 to matrix element file.
 Write REAL ZEFFECTIVE                     from file     0 offset           0 length                   7 to matrix element file.
 Write REAL QUADRUPOLEMOMENT               from file     0 offset           0 length                   7 to matrix element file.
 Write REAL GFACTOR                        from file     0 offset           0 length                   7 to matrix element file.
 Write REAL ZNUCLEAR                       from file     0 offset           0 length                   7 to matrix element file.
 Write MULLIKEN CHARGES                    from file     0 offset           0 length                   7 to matrix element file.
 Write NUCLEAR GRADIENT                    from file 10584 offset           0 length                  21 to matrix element file.
 Array NUCLEAR FORCE CONSTANTS              on  file 10585 does not exist.
 Write ELECTRIC DIPOLE MOMENT              from file     0 offset           0 length                   3 to matrix element file.
 Write NON-ADIABATIC COUPLING              from file 10810 offset           0 length                  21 to matrix element file.
 Write OVERLAP                             from file 10514 offset           0 length                 406 to matrix element file.
 Write CORE HAMILTONIAN ALPHA              from file 10515 offset           0 length                 406 to matrix element file.
 Write CORE HAMILTONIAN BETA               from file 10515 offset         406 length                 406 to matrix element file.
 Write KINETIC ENERGY                      from file 10516 offset           0 length                 406 to matrix element file.
 Write ORTHOGONAL BASIS                    from file 10685 offset           0 length                 784 to matrix element file.
 Write DIPOLE INTEGRALS                    from file 10518 offset           0 length                1218 to matrix element file.
 Array DIP VEL INTEGRALS                    on  file 10572 does not exist.
 Array R X DEL INTEGRALS                    on  file 10572 does not exist.
 Write ALPHA ORBITAL ENERGIES              from file     0 offset           0 length                  28 to matrix element file.
 Write ALPHA MO COEFFICIENTS               from file 10524 offset           0 length                 784 to matrix element file.
 Write ALPHA DENSITY MATRIX                from file     0 offset           0 length                 406 to matrix element file.
 Write ALPHA SCF DENSITY MATRIX            from file 10528 offset           0 length                 406 to matrix element file.
 Write ALPHA FOCK MATRIX                   from file 10536 offset           0 length                 406 to matrix element file.
 Write ALPHA SCF DENSITY                   from file     0 offset           0 length                 406 to matrix element file.
 No 2e integrals to process.
 Perform NBO analysis...executing G16NBO...


 NATURAL BOND ORBITALS (Summary):

                                                     Principal Delocalizations
           NBO                 Occupancy    Energy   (geminal,vicinal,remote)
 ===============================================================================
 Molecular unit  1  (CH5N)
 ------ Lewis --------------------------------------
    1. CR ( 1) C  1             1.99978   -11.17809  18(g)
    2. CR ( 1) N  2             1.99984   -15.42301  22(g)
    3. LP ( 1) N  2             1.97366    -0.38894  11(v),12(v),13(v)
    4. BD ( 1) C  1- N  2       1.99888    -0.80526
    5. BD ( 1) C  1- H  3       1.99638    -0.64584  20(v),14(v),15(v)
    6. BD ( 1) C  1- H  4       1.99598    -0.65651  14(v)
    7. BD ( 1) C  1- H  5       1.99598    -0.65651  15(v)
    8. BD ( 1) N  2- H  6       1.99629    -0.77620  12(v),16(v),13(v)
    9. BD ( 1) N  2- H  7       1.99629    -0.77620  13(v),16(v),12(v)
 ------ non-Lewis ----------------------------------
   10. BD*( 1) C  1- N  2       0.00010     0.57729
   11. BD*( 1) C  1- H  3       0.01657     0.71996
   12. BD*( 1) C  1- H  4       0.00732     0.70468
   13. BD*( 1) C  1- H  5       0.00732     0.70468
   14. BD*( 1) N  2- H  6       0.00328     0.71867
   15. BD*( 1) N  2- H  7       0.00328     0.71867
   16. RY ( 1) C  1             0.00086     1.03512
   17. RY ( 2) C  1             0.00078     0.97813
   18. RY ( 3) C  1             0.00015     1.87618
   19. RY ( 4) C  1             0.00001     1.05060
   20. RY ( 1) N  2             0.00141     1.47904
   21. RY ( 2) N  2             0.00050     1.66006
   22. RY ( 3) N  2             0.00031     2.29781
   23. RY ( 4) N  2             0.00001     2.01396
   24. RY ( 1) H  3             0.00126     0.94713
   25. RY ( 1) H  4             0.00103     0.94187
   26. RY ( 1) H  5             0.00103     0.94187
   27. RY ( 1) H  6             0.00086     0.96313
   28. RY ( 1) H  7             0.00086     0.96313
          -------------------------------
[...]
      1      1  C 
      2      2  N        1   1.587307(     1)
      3      3  H        1   1.085396(     2)      2  105.808(     7)
      4      4  H        1   1.086960(     3)      2  107.799(     8)      3  119.878(    12)      0
      5      5  H        1   1.086960(     4)      2  107.799(     9)      3 -119.878(    13)      0
      6      6  H        2   1.007218(     5)      1  109.851(    10)      3  118.953(    14)      0
      7      7  H        2   1.007218(     6)      1  109.851(    11)      3 -118.953(    15)      0
 ---------------------------------------------------------------------------------------------------
                         Z-Matrix orientation:                         
 ---------------------------------------------------------------------
 Center     Atomic      Atomic             Coordinates (Angstroms)
 Number     Number       Type             X           Y           Z
 ---------------------------------------------------------------------
      1          6           0        0.000000    0.000000    0.000000
      2          7           0        0.000000    0.000000    1.587307
      3          1           0        1.044348    0.000000   -0.295671
      4          1           0       -0.515564   -0.897373   -0.332259
      5          1           0       -0.515564    0.897373   -0.332259
      6          1           0       -0.458617    0.828965    1.929325
      7          1           0       -0.458617   -0.828965    1.929325
 ---------------------------------------------------------------------
                    Distance matrix (angstroms):
                    1          2          3          4          5
     1  C    0.000000
     2  N    1.587307   0.000000
     3  H    1.085396   2.153200   0.000000
     4  H    1.086960   2.180783   1.799984   0.000000
     5  H    1.086960   2.180783   1.799984   1.794747   0.000000
     6  H    2.149374   1.007218   2.810106   2.845742   2.263335
     7  H    2.149374   1.007218   2.810106   2.263335   2.845742
                    6          7
     6  H    0.000000
     7  H    1.657929   0.000000
 Stoichiometry    CH5N
 Framework group  CS[SG(CHN),X(H4)]
 Deg. of freedom     9
 Full point group                 CS      NOp   2
 Largest Abelian subgroup         CS      NOp   2
 Largest concise Abelian subgroup CS      NOp   2
                         Standard orientation:                         
 ---------------------------------------------------------------------
 Center     Atomic      Atomic             Coordinates (Angstroms)
 Number     Number       Type             X           Y           Z
 ---------------------------------------------------------------------
      1          6           0       -0.050223    0.778312   -0.000000
      2          7           0       -0.050223   -0.808995    0.000000
      3          1           0       -1.094571    1.073983   -0.000000
      4          1           0        0.465341    1.110570    0.897373
      5          1           0        0.465341    1.110570   -0.897373
      6          1           0        0.408394   -1.151014   -0.828965
      7          1           0        0.408394   -1.151014    0.828965
 ---------------------------------------------------------------------
 Rotational constants (GHZ):         101.2551425          20.4164631          19.6043512

 **********************************************************************

            Population analysis using the SCF Density.

 **********************************************************************

 Orbital symmetries:
       Occupied  (A') (A') (A') (A') (A") (A') (A") (A') (A')
       Virtual   (A') (A") (A') (A') (A') (A") (A") (A') (A') (A')
                 (A") (A') (A') (A") (A') (A") (A') (A') (A')
 The electronic state is 1-A'.
 Alpha  occ. eigenvalues --  -15.42267 -11.19334  -1.12197  -0.89700  -0.64069
 Alpha  occ. eigenvalues --   -0.58180  -0.53295  -0.51539  -0.36155
 Alpha virt. eigenvalues --    0.26077   0.31543   0.32280   0.35360   0.41017
 Alpha virt. eigenvalues --    0.42064   0.93390   0.96195   0.97078   1.26701
 Alpha virt. eigenvalues --    1.29697   1.31781   1.33463   1.35264   1.50902
 Alpha virt. eigenvalues --    1.67140   1.68658   1.96277   2.80096
          Condensed to atoms (all electrons):
               1          2          3          4          5          6
     1  C    5.153471   0.239521   0.376639   0.370708   0.370708  -0.040990
     2  N    0.239521   6.909356  -0.030883  -0.025385  -0.025385   0.336440
     3  H    0.376639  -0.030883   0.482858  -0.028163  -0.028163   0.001630
     4  H    0.370708  -0.025385  -0.028163   0.519845  -0.027739   0.001864
     5  H    0.370708  -0.025385  -0.028163  -0.027739   0.519845  -0.003352
     6  H   -0.040990   0.336440   0.001630   0.001864  -0.003352   0.458072
     7  H   -0.040990   0.336440   0.001630  -0.003352   0.001864  -0.033801
               7
     1  C   -0.040990
     2  N    0.336440
     3  H    0.001630
     4  H   -0.003352
     5  H    0.001864
     6  H   -0.033801
     7  H    0.458072
 Mulliken charges:
               1
     1  C   -0.429068
     2  N   -0.740102
     3  H    0.224453
     4  H    0.192223
     5  H    0.192223
     6  H    0.280136
     7  H    0.280136
 Sum of Mulliken charges =  -0.00000
 Mulliken charges with hydrogens summed into heavy atoms:
               1
     1  C    0.179830
     2  N   -0.179830
 Electronic spatial extent (au):  <R**2>=            100.0456
 Charge=             -0.0000 electrons
 Dipole moment (field-independent basis, Debye):
    X=              1.6951    Y=              0.7413    Z=             -0.0000  Tot=              1.8501
 Quadrupole moment (field-independent basis, Debye-Ang):
   XX=            -14.6281   YY=            -14.0106   ZZ=            -12.4162
   XY=             -2.2536   XZ=             -0.0000   YZ=              0.0000
 Traceless Quadrupole moment (field-independent basis, Debye-Ang):
   XX=             -0.9432   YY=             -0.3256   ZZ=              1.2688
   XY=             -2.2536   XZ=             -0.0000   YZ=              0.0000
 Octapole moment (field-independent basis, Debye-Ang**2):
  XXX=              0.4345  YYY=             -2.6385  ZZZ=             -0.0000  XYY=              2.7151
  XXY=              0.4496  XXZ=             -0.0000  XZZ=              1.6702  YZZ=             -2.0455
  YYZ=             -0.0000  XYZ=             -0.0000
 Hexadecapole moment (field-independent basis, Debye-Ang**3):
 XXXX=            -20.6870 YYYY=            -79.8025 ZZZZ=            -21.8311 XXXY=             -0.1443
 XXXZ=             -0.0000 YYYX=             -1.4301 YYYZ=             -0.0000 ZZZX=             -0.0000
 ZZZY=             -0.0000 XXYY=            -16.6473 XXZZ=             -7.0919 YYZZ=            -14.6335
 XXYZ=             -0.0000 YYXZ=             -0.0000 ZZXY=              0.2026
 N-N= 4.061479348951D+01 E-N=-3.021803432251D+02  KE= 9.425517372628D+01
 Symmetry A'   KE= 8.977649535198D+01
 Symmetry A"   KE= 4.478678374296D+00
 Running external command "gaunbo6 R"
         input file       "/scr/ericg/reopt-ecl/Gau-12598.EIn"
         output file      "/scr/ericg/reopt-ecl/Gau-12598.EOu"
         message file     "/scr/ericg/reopt-ecl/Gau-12598.EMs"
         fchk file        "/scr/ericg/reopt-ecl/Gau-12598.EFC"
         mat. el file     "/scr/ericg/reopt-ecl/Gau-12598.EUF"
 Coordinates do not match /B/: Transferring coordinates from /Mol/ to /B/.

 Writing WrtUnf unformatted file "/scr/ericg/reopt-ecl/Gau-12598.EUF"
 Gaussian matrix elements                                         Version   2 NLab=11 Len12L=8 Len4L=8
 Write SHELL TO ATOM MAP                   from file     0 offset           0 length                  16 to matrix element file.
 Write SHELL TYPES                         from file     0 offset           0 length                  16 to matrix element file.
 Write NUMBER OF PRIMITIVES PER SHELL      from file     0 offset           0 length                  16 to matrix element file.
 Write PRIMITIVE EXPONENTS                 from file     0 offset           0 length                  27 to matrix element file.
 Write CONTRACTION COEFFICIENTS            from file     0 offset           0 length                  27 to matrix element file.
 Write P(S=P) CONTRACTION COEFFICIENTS     from file     0 offset           0 length                  27 to matrix element file.
 Write COORDINATES OF EACH SHELL           from file     0 offset           0 length                  48 to matrix element file.
 Write BONDS PER ATOM                      from file     0 offset           0 length                   7 to matrix element file.
 Write BONDED ATOMS                        from file     0 offset           0 length                  12 to matrix element file.
 Write BOND TYPES                          from file     0 offset           0 length                  12 to matrix element file.
 Write GAUSSIAN SCALARS                    from file   501 offset           0 to matrix element file.
 Write INTEGER ISO                         from file     0 offset           0 length                   7 to matrix element file.
 Write INTEGER SPIN                        from file     0 offset           0 length                   7 to matrix element file.
 Write REAL ZEFFECTIVE                     from file     0 offset           0 length                   7 to matrix element file.
 Write REAL QUADRUPOLEMOMENT               from file     0 offset           0 length                   7 to matrix element file.
 Write REAL GFACTOR                        from file     0 offset           0 length                   7 to matrix element file.
 Write REAL ZNUCLEAR                       from file     0 offset           0 length                   7 to matrix element file.
 Write MULLIKEN CHARGES                    from file     0 offset           0 length                   7 to matrix element file.
 Write NUCLEAR GRADIENT                    from file 10584 offset           0 length                  21 to matrix element file.
 Array NUCLEAR FORCE CONSTANTS              on  file 10585 does not exist.
 Write ELECTRIC DIPOLE MOMENT              from file     0 offset           0 length                   3 to matrix element file.
 Write NON-ADIABATIC COUPLING              from file 10810 offset           0 length                  21 to matrix element file.
 Write OVERLAP                             from file 10514 offset           0 length                 406 to matrix element file.
 Write CORE HAMILTONIAN ALPHA              from file 10515 offset           0 length                 406 to matrix element file.
 Write CORE HAMILTONIAN BETA               from file 10515 offset         406 length                 406 to matrix element file.
 Write KINETIC ENERGY                      from file 10516 offset           0 length                 406 to matrix element file.
 Write ORTHOGONAL BASIS                    from file 10685 offset           0 length                 784 to matrix element file.
 Write DIPOLE INTEGRALS                    from file 10518 offset           0 length                1218 to matrix element file.
 Array DIP VEL INTEGRALS                    on  file 10572 does not exist.
 Array R X DEL INTEGRALS                    on  file 10572 does not exist.
 Write ALPHA ORBITAL ENERGIES              from file     0 offset           0 length                  28 to matrix element file.
 Write ALPHA MO COEFFICIENTS               from file 10524 offset           0 length                 784 to matrix element file.
 Write ALPHA DENSITY MATRIX                from file     0 offset           0 length                 406 to matrix element file.
 Write ALPHA SCF DENSITY MATRIX            from file 10528 offset           0 length                 406 to matrix element file.
 Write ALPHA FOCK MATRIX                   from file 10536 offset           0 length                 406 to matrix element file.
 Write ALPHA SCF DENSITY                   from file     0 offset           0 length                 406 to matrix element file.
 No 2e integrals to process.
 Perform NBO analysis...executing G16NBO...

 Basis functions are not in expected form; all options requiring function
 coefficients and exponents (BEND, NJC, NBCP, and PLOT/AOINFO) are disabled


 NATURAL BOND ORBITALS (Summary):

                                                     Principal Delocalizations
           NBO                 Occupancy    Energy   (geminal,vicinal,remote)
 ===============================================================================
 Molecular unit  1  (CH5N)
 ------ Lewis --------------------------------------
    1. CR ( 1) C  1             1.99979   -11.19070
    2. CR ( 1) N  2             1.99985   -15.40793  21(g)
    3. LP ( 1) N  2             1.99326    -0.41303  11(v),12(v),13(v)
    4. BD ( 1) C  1- N  2       1.99896    -0.70820
    5. BD ( 1) C  1- H  3       1.99811    -0.65897  20(v)
    6. BD ( 1) C  1- H  4       1.99853    -0.67154
    7. BD ( 1) C  1- H  5       1.99853    -0.67154
    8. BD ( 1) N  2- H  6       1.99834    -0.76632
    9. BD ( 1) N  2- H  7       1.99834    -0.76632
 ------ non-Lewis ----------------------------------
   10. BD*( 1) C  1- N  2       0.00031     0.45228
   11. BD*( 1) C  1- H  3       0.00456     0.70964
   12. BD*( 1) C  1- H  4       0.00221     0.69066
   13. BD*( 1) C  1- H  5       0.00221     0.69066
   14. BD*( 1) N  2- H  6       0.00118     0.70246
   15. BD*( 1) N  2- H  7       0.00118     0.70246
   16. RY ( 1) C  1             0.00044     1.10070
   17. RY ( 2) C  1             0.00029     1.02751
   18. RY ( 3) C  1             0.00021     1.76802
   19. RY ( 4) C  1             0.00001     1.07660
   20. RY ( 1) N  2             0.00068     1.50890
   21. RY ( 2) N  2             0.00038     2.19071
   22. RY ( 3) N  2             0.00030     1.62896
   23. RY ( 4) N  2             0.00001     2.11947
   24. RY ( 1) H  3             0.00035     0.93762
   25. RY ( 1) H  4             0.00043     0.93306
   26. RY ( 1) H  5             0.00043     0.93306
   27. RY ( 1) H  6             0.00056     0.98209
   28. RY ( 1) H  7             0.00056     0.98209
          -------------------------------
                 Total Lewis   17.98372  ( 99.9095%)
           Valence non-Lewis    0.01166  (  0.0648%)
           Rydberg non-Lewis    0.00463  (  0.0257%)
          -------------------------------
               Total unit  1   18.00000  (100.0000%)
              Charge unit  1    0.00000

 $CHOOSE
   LONE 2 1 END
   BOND S 1 2 S 1 3 S 1 4 S 1 5 S 2 6 S 2 7 END
 $END
 Maximum scratch memory used by G16NBO was 9478 words (0.07 MB)


 LEWIS: Delete all non-Lewis NBOs
 Deletion of the following orbitals from the NBO Fock matrix:
   10  11  12  13  14  15  16  17  18  19  20  21  22  23  24  25  26  27  28

 Orbital occupancies:

       Orbital                         No deletions  This deletion    Change
 ------------------------------------------------------------------------------
    1. CR ( 1) C  1                      1.99979        2.00000       0.00021
    2. CR ( 1) N  2                      1.99985        2.00000       0.00015
    3. LP ( 1) N  2                      1.99326        2.00000       0.00674
    4. BD ( 1) C  1- N  2                1.99896        2.00000       0.00104
    5. BD ( 1) C  1- H  3                1.99811        2.00000       0.00189
    6. BD ( 1) C  1- H  4                1.99853        2.00000       0.00147
    7. BD ( 1) C  1- H  5                1.99853        2.00000       0.00147
    8. BD ( 1) N  2- H  6                1.99834        2.00000       0.00166
    9. BD ( 1) N  2- H  7                1.99834        2.00000       0.00166
   10. BD*( 1) C  1- N  2                0.00031        0.00000      -0.00031
   11. BD*( 1) C  1- H  3                0.00456        0.00000      -0.00456
   12. BD*( 1) C  1- H  4                0.00221        0.00000      -0.00221
   13. BD*( 1) C  1- H  5                0.00221        0.00000      -0.00221
   14. BD*( 1) N  2- H  6                0.00118        0.00000      -0.00118
   15. BD*( 1) N  2- H  7                0.00118        0.00000      -0.00118
   16. RY ( 1) C  1                      0.00044        0.00000      -0.00044
   17. RY ( 2) C  1                      0.00029        0.00000      -0.00029
   18. RY ( 3) C  1                      0.00021        0.00000      -0.00021
   19. RY ( 4) C  1                      0.00001        0.00000      -0.00001
   20. RY ( 1) N  2                      0.00068        0.00000      -0.00068
   21. RY ( 2) N  2                      0.00038        0.00000      -0.00038
   22. RY ( 3) N  2                      0.00030        0.00000      -0.00030
   23. RY ( 4) N  2                      0.00001        0.00000      -0.00001
   24. RY ( 1) H  3                      0.00035        0.00000      -0.00035
   25. RY ( 1) H  4                      0.00043        0.00000      -0.00043
   26. RY ( 1) H  5                      0.00043        0.00000      -0.00043
   27. RY ( 1) H  6                      0.00056        0.00000      -0.00056
   28. RY ( 1) H  7                      0.00056        0.00000      -0.00056

 NEXT STEP:  Perform one SCF cycle to evaluate the energy of the new density
             matrix constructed from the deleted NBO Fock matrix.

 ------------------------------------------------------------------------------
 Opening RunExU unformatted file "/scr/ericg/reopt-ecl/Gau-12598.EUF"
 Read unf file /scr/ericg/reopt-ecl/Gau-12598.EUF:
 Label Gaussian matrix elements                                         IVers= 1 NLab= 2 Version=ES64L-G16RevB.01
 Title Eclipsed Methylamine...reoptimization with LEWIS deletions      
 NAtoms=     7 NBasis=    28 NBsUse=    28 ICharg=     0 Multip=     1 NE=    18 Len12L=8 Len4L=8 IOpCl= 0 ICGU= -1
 GAUSSIAN SCALARS                    NI= 1 NR= 1 NTot=       1 LenBuf=    2 NRI=1 N=    1000
 ALPHA DENSITY MATRIX                NI= 0 NR= 1 NTot=     406 LenBuf= 4000 NRI=1 N=     -28      28
 Store file  10528 Len=     406.
 ALPHA MO COEFFICIENTS               NI= 0 NR= 1 NTot=     784 LenBuf= 4000 NRI=1 N=      28      28
 Store file  10524 Len=     784.
 NPA CHARGES                         NI= 0 NR= 1 NTot=       7 LenBuf= 4000 NRI=1 N=       7
 Recovered energy= -94.6410627102     dipole=      0.666910638132      0.291652258034     -0.000000000000

 This type of calculation cannot be archived.


 EXPERIMENTALISTS THINK SILICON IS REALLY FUN TO USE
     ITS PLACE IN NOVEL COMPOUNDS IS CERTAIN TO AMUSE
 THEY SIT ALL DAY IN LABORATORIES MAKING ALL THIS SLUDGE
     "LOADED WITH THE SILICON THEY SAY", TO ME IT LOOKS LIKE FUDGE.
 FOR HAPPY THOUGH THEY BE WITH CRUD, I'D LIKE TO KNOW A LITTLE
      ABOUT THE PI BONDS ON THE EDGE AND SIGMAS IN THE MIDDLE.

 SO LETS DERIVE A WAVEFUNCTION.....6-31G*
     USE AN OPTIMAL GEOMETRY AND SEE WHERE ELECTRONS ARE.
 BUT WHAT OF CORRELATION?  ASKS THE WIRY LITTLE SKEPTIC.
     WE'LL THROW IN PERTURBATION AS AN ELECTRON ANTISEPTIC.
 AND WHEN THE PROGRAM GIVES US ANSWERS IN THEM WE CAN TRUST
     SINCE NOBODY CAN MAKE THE STUFF, WE HAVE NO CHOICE, WE MUST.

 SO THEORY GUYS HAVE GOT IT MADE, IN ROOMS FREE OF POLLUTION.
     INSTEAD OF PROBLEMS WITH THE REFLUX, THEY HAVE ONLY SOLUTIONS.
 AND WHEN THE FEDS ANNOUNCE THE LIST OF CARCINOGENIC TERRORS,
     THE THEORISTS SIT SAFELY AT THEIR TERMINALS FIXING ERRORS.
 IN OTHER WORDS, EXPERIMENTALISTS WILL LIKELY DIE OF CANCER
     FROM WORKING HARD YET FRUITLESSLY...TILL THEORY GIVES THE ANSWER.
          -- THOMAS A. HOLME, 1983
 Job cpu time:       0 days  0 hours  6 minutes 31.9 seconds.
 Elapsed time:       0 days  0 hours  1 minutes 42.9 seconds.
 File lengths (MBytes):  RWF=      6 Int=      0 D2E=      0 Chk=      1 Scr=      1
 Normal termination of Gaussian 16 at Mon May 18 16:39:57 2020.
