 Entering Gaussian System, Link 0=/opt/g16.b01/g16/g16
 Initial command:
 /opt/g16.b01/g16/l1.exe "/scr/ericg/reopt/Gau-7627.inp" -scrdir="/scr/ericg/reopt/"
 Entering Link 1 = /opt/g16.b01/g16/l1.exe PID=      7629.
  
 Copyright (c) 1988-2017, Gaussian, Inc.  All Rights Reserved.
  
 This is part of the Gaussian(R) 16 program.  It is based on
 the Gaussian(R) 09 system (copyright 2009, Gaussian, Inc.),
 the Gaussian(R) 03 system (copyright 2003, Gaussian, Inc.),
 the Gaussian(R) 98 system (copyright 1998, Gaussian, Inc.),
 the Gaussian(R) 94 system (copyright 1995, Gaussian, Inc.),
 the Gaussian 92(TM) system (copyright 1992, Gaussian, Inc.),
 the Gaussian 90(TM) system (copyright 1990, Gaussian, Inc.),
 the Gaussian 88(TM) system (copyright 1988, Gaussian, Inc.),
 the Gaussian 86(TM) system (copyright 1986, Carnegie Mellon
 University), and the Gaussian 82(TM) system (copyright 1983,
 Carnegie Mellon University). Gaussian is a federally registered
 trademark of Gaussian, Inc.
  
 This software contains proprietary and confidential information,
 including trade secrets, belonging to Gaussian, Inc.
  
 This software is provided under written license and may be
 used, copied, transmitted, or stored only in accord with that
 written license.
  
 The following legend is applicable only to US Government
 contracts under FAR:
  
                    RESTRICTED RIGHTS LEGEND
  
 Use, reproduction and disclosure by the US Government is
 subject to restrictions as set forth in subparagraphs (a)
 and (c) of the Commercial Computer Software - Restricted
 Rights clause in FAR 52.227-19.
  
 Gaussian, Inc.
 340 Quinnipiac St., Bldg. 40, Wallingford CT 06492
  
  
 ---------------------------------------------------------------
 Warning -- This program may not be used in any manner that
 competes with the business of Gaussian, Inc. or will provide
 assistance to any competitor of Gaussian, Inc.  The licensee
 of this program is prohibited from giving any competitor of
 Gaussian, Inc. access to this program.  By using this program,
 the user acknowledges that Gaussian, Inc. is engaged in the
 business of creating and licensing software in the field of
 computational chemistry and represents and warrants to the
 licensee that it is not a competitor of Gaussian, Inc. and that
 it will not use this program in any manner prohibited above.
 ---------------------------------------------------------------
  

 Cite this work as:
 Gaussian 16, Revision B.01,
 M. J. Frisch, G. W. Trucks, H. B. Schlegel, G. E. Scuseria, 
 M. A. Robb, J. R. Cheeseman, G. Scalmani, V. Barone, 
 G. A. Petersson, H. Nakatsuji, X. Li, M. Caricato, A. V. Marenich, 
 J. Bloino, B. G. Janesko, R. Gomperts, B. Mennucci, H. P. Hratchian, 
 J. V. Ortiz, A. F. Izmaylov, J. L. Sonnenberg, D. Williams-Young, 
 F. Ding, F. Lipparini, F. Egidi, J. Goings, B. Peng, A. Petrone, 
 T. Henderson, D. Ranasinghe, V. G. Zakrzewski, J. Gao, N. Rega, 
 G. Zheng, W. Liang, M. Hada, M. Ehara, K. Toyota, R. Fukuda, 
 J. Hasegawa, M. Ishida, T. Nakajima, Y. Honda, O. Kitao, H. Nakai, 
 T. Vreven, K. Throssell, J. A. Montgomery, Jr., J. E. Peralta, 
 F. Ogliaro, M. J. Bearpark, J. J. Heyd, E. N. Brothers, K. N. Kudin, 
 V. N. Staroverov, T. A. Keith, R. Kobayashi, J. Normand, 
 K. Raghavachari, A. P. Rendell, J. C. Burant, S. S. Iyengar, 
 J. Tomasi, M. Cossi, J. M. Millam, M. Klene, C. Adamo, R. Cammi, 
 J. W. Ochterski, R. L. Martin, K. Morokuma, O. Farkas, 
 J. B. Foresman, and D. J. Fox, Gaussian, Inc., Wallingford CT, 2016.
 
 ******************************************
 Gaussian 16:  ES64L-G16RevB.01 20-Dec-2017
                18-May-2020 
 ******************************************
 %nproc=4
 Will use up to    4 processors via shared memory.
 ------------------------------------
 # rhf/3-21g opt=z-matrix pop=nbo6del
 ------------------------------------

 Warning:  this job cannot use analytic gradients
           and so will do many energy evaluations.

 1/18=40,29=20000,38=1,163=2,172=1/1,14;
 2/12=2,17=6,18=5,29=3,40=1/2;
 3/5=5,11=1,25=1,30=1,116=1/1,2,3;
 4//1;
 5/5=2,38=5/2;
 6/7=2,8=2,9=2,10=2,28=1,40=12,113=1,114=1,124=2103/1,12(1);
 99//99;
 5/5=2,7=1,13=1,38=1,48=100000/2;
 6/7=2,8=2,9=2,10=2,28=1,40=3,113=1,114=1,124=2103/12(-1);
 1/18=40/14(2);
 2/29=3/2;
 99//99;
 2/29=3/2;
 3/5=5,11=1,25=1,30=1,116=1/1,2,3;
 4/5=5,16=3,69=1/1;
 5/5=2,38=5/2;
 6/7=2,8=2,9=2,10=2,28=1,40=12,113=1,114=1,124=2103/1,12(1);
 99/9=1/99;
 5/5=2,7=1,13=1,38=1,48=100000/2;
 6/7=2,8=2,9=2,10=2,28=1,40=3,113=1,114=1,124=2103/12(-1);
 1/18=40/14(-8);
 2/29=3/2;
 6/7=2,8=2,9=2,10=2,19=2,28=1,40=12,113=1,114=1,124=2103/1,12;
 99/9=1/99;
 -------------------------------------------------
 Methylamine...reoptimization with LEWIS deletions
 -------------------------------------------------
 Symbolic Z-matrix:
 Charge =  0 Multiplicity = 1
 C
 N                    1    CN
 H                    1    CHa      2    NCHa
 H                    1    CHb      2    NCHb     3    alfa     0
 H                    1    CHb      2    NCHb     3    -alfa    0
 H                    2    NH       1    CNH      3    beta     0
 H                    2    NH       1    CNH      3    -beta    0
       Variables:
  CN                    1.4712                   
  CHa                   1.0901                   
  CHb                   1.0825                   
  NH                    1.0035                   
  NCHa                114.7663                   
  NCHb                108.9473                   
  CNH                 113.6495                   
  alfa                121.4224                   
  beta                 64.2403                   
 

 NEF-NEF-NEF-NEF-NEF-NEF-NEF-NEF-NEF-NEF-NEF-NEF-NEF-NEF-NEF-NEF-NEF-NEF-
 NUMERICAL EIGENVECTOR FOLLOWING MINIMUM SEARCH
 INITIALIZATION PASS
                       ----------------------------
                       !    Initial Parameters    !
                       ! (Angstroms and Degrees)  !
 ----------------------                            ----------------------
 !      Name          Value   Derivative information (Atomic Units)     !
 ------------------------------------------------------------------------
 !       CN          1.4712   estimate D2E/DX2                          !
 !       CHa         1.0901   estimate D2E/DX2                          !
 !       CHb         1.0825   estimate D2E/DX2                          !
 !       NH          1.0035   estimate D2E/DX2                          !
 !      NCHa       114.7663   estimate D2E/DX2                          !
 !      NCHb       108.9473   estimate D2E/DX2                          !
 !       CNH       113.6495   estimate D2E/DX2                          !
 !      alfa       121.4224   estimate D2E/DX2                          !
 !      beta        64.2403   estimate D2E/DX2                          !
 ------------------------------------------------------------------------


 ***************************************************
 ** O P T I M I Z A T I O N   P A R A M E T E R S **
 **  MAXIMUM NO. OF ITERATIONS      :          29 **
 **  MAXIMUM ALLOWED STEP LENGTH    :    0.300000 **
 ***************************************************



 NEF-NEF-NEF-NEF-NEF-NEF-NEF-NEF-NEF-NEF-NEF-NEF-NEF-NEF-NEF-NEF-NEF-NEF-
 ---------------------------------------------------------------------------------------------------
                            Z-MATRIX (ANGSTROMS AND DEGREES)
   CD    Cent   Atom    N1       Length/X        N2       Alpha/Y        N3        Beta/Z          J
 ---------------------------------------------------------------------------------------------------
      1      1  C 
      2      2  N        1   1.471200(     1)
      3      3  H        1   1.090100(     2)      2  114.766(     7)
      4      4  H        1   1.082500(     3)      2  108.947(     8)      3  121.422(    12)      0
      5      5  H        1   1.082500(     4)      2  108.947(     9)      3 -121.422(    13)      0
      6      6  H        2   1.003500(     5)      1  113.650(    10)      3   64.240(    14)      0
      7      7  H        2   1.003500(     6)      1  113.650(    11)      3  -64.240(    15)      0
 ---------------------------------------------------------------------------------------------------
                         Z-Matrix orientation:                         
 ---------------------------------------------------------------------
 Center     Atomic      Atomic             Coordinates (Angstroms)
 Number     Number       Type             X           Y           Z
 ---------------------------------------------------------------------
      1          6           0        0.000000    0.000000    0.000000
      2          7           0        0.000000    0.000000    1.471200
      3          1           0        0.989837    0.000000   -0.456663
      4          1           0       -0.533776   -0.873697   -0.351486
      5          1           0       -0.533776    0.873697   -0.351486
      6          1           0        0.399492    0.827875    1.873745
      7          1           0        0.399492   -0.827875    1.873745
 ---------------------------------------------------------------------
                    Distance matrix (angstroms):
                    1          2          3          4          5
     1  C    0.000000
     2  N    1.471200   0.000000
     3  H    1.090100   2.167125   0.000000
     4  H    1.082500   2.090562   1.759490   0.000000
     5  H    1.082500   2.090562   1.759490   1.747395   0.000000
     6  H    2.087077   1.003500   2.542574   2.952624   2.413450
     7  H    2.087077   1.003500   2.542574   2.413450   2.952624
                    6          7
     6  H    0.000000
     7  H    1.655749   0.000000
 Stoichiometry    CH5N
 Framework group  CS[SG(CHN),X(H4)]
 Deg. of freedom     9
 Full point group                 CS      NOp   2
 Largest Abelian subgroup         CS      NOp   2
 Largest concise Abelian subgroup CS      NOp   2
                         Standard orientation:                         
 ---------------------------------------------------------------------
 Center     Atomic      Atomic             Coordinates (Angstroms)
 Number     Number       Type             X           Y           Z
 ---------------------------------------------------------------------
      1          6           0        0.040070    0.715903   -0.000000
      2          7           0        0.040070   -0.755297    0.000000
      3          1           0       -0.949767    1.172566   -0.000000
      4          1           0        0.573847    1.067389    0.873697
      5          1           0        0.573847    1.067389   -0.873697
      6          1           0       -0.359422   -1.157842   -0.827875
      7          1           0       -0.359422   -1.157842    0.827875
 ---------------------------------------------------------------------
 Rotational constants (GHZ):         106.5237443          22.6039773          21.5477404
 Standard basis: 3-21G (6D, 7F)
 There are    20 symmetry adapted cartesian basis functions of A'  symmetry.
 There are     8 symmetry adapted cartesian basis functions of A"  symmetry.
 There are    20 symmetry adapted basis functions of A'  symmetry.
 There are     8 symmetry adapted basis functions of A"  symmetry.
    28 basis functions,    45 primitive gaussians,    28 cartesian basis functions
     9 alpha electrons        9 beta electrons
       nuclear repulsion energy        42.0012897217 Hartrees.
 NAtoms=    7 NActive=    7 NUniq=    5 SFac= 1.96D+00 NAtFMM=   60 NAOKFM=F Big=F
 Integral buffers will be    131072 words long.
 Raffenetti 1 integral format.
 Two-electron integral symmetry is turned on.
 One-electron integrals computed using PRISM.
 NBasis=    28 RedAO= T EigKep=  2.61D-02  NBF=    20     8
 NBsUse=    28 1.00D-06 EigRej= -1.00D+00 NBFU=    20     8
 ExpMin= 1.83D-01 ExpMax= 2.43D+02 ExpMxC= 2.43D+02 IAcc=3 IRadAn=         5 AccDes= 0.00D+00
 Harris functional with IExCor=  205 and IRadAn=       5 diagonalized for initial guess.
 HarFok:  IExCor=  205 AccDes= 0.00D+00 IRadAn=         5 IDoV= 1 UseB2=F ITyADJ=14
 ICtDFT=  3500011 ScaDFX=  1.000000  1.000000  1.000000  1.000000
 FoFCou: FMM=F IPFlag=           0 FMFlag=      100000 FMFlg1=           0
         NFxFlg=           0 DoJE=T BraDBF=F KetDBF=T FulRan=T
         wScrn=  0.000000 ICntrl=       500 IOpCl=  0 I1Cent=   200000004 NGrid=           0
         NMat0=    1 NMatS0=      1 NMatT0=    0 NMatD0=    1 NMtDS0=    0 NMtDT0=    0
 Petite list used in FoFCou.
 Initial guess orbital symmetries:
       Occupied  (A') (A') (A') (A') (A") (A') (A') (A") (A')
       Virtual   (A') (A') (A") (A') (A') (A") (A') (A") (A') (A')
                 (A") (A') (A') (A") (A') (A") (A') (A') (A')
 The electronic state of the initial guess is 1-A'.
 Keep R1 ints in memory in symmetry-blocked form, NReq=892330.
 Requested convergence on RMS density matrix=1.00D-08 within 128 cycles.
 Requested convergence on MAX density matrix=1.00D-06.
 Requested convergence on             energy=1.00D-06.
 No special actions if energy rises.
 SCF Done:  E(RHF) =  -94.6816558352     A.U. after   10 cycles
            NFock= 10  Conv=0.71D-08     -V/T= 2.0023

 **********************************************************************

            Population analysis using the SCF Density.

 **********************************************************************

 Orbital symmetries:
       Occupied  (A') (A') (A') (A') (A") (A') (A') (A") (A')
       Virtual   (A') (A') (A") (A') (A") (A') (A") (A') (A') (A')
                 (A") (A') (A') (A") (A') (A") (A') (A') (A')
 The electronic state is 1-A'.
 Alpha  occ. eigenvalues --  -15.44143 -11.18050  -1.15483  -0.89643  -0.65844
 Alpha  occ. eigenvalues --   -0.59109  -0.55260  -0.51700  -0.36314
 Alpha virt. eigenvalues --    0.27433   0.32677   0.33696   0.36226   0.38906
 Alpha virt. eigenvalues --    0.45583   0.93452   0.98042   0.99086   1.26708
 Alpha virt. eigenvalues --    1.28000   1.32874   1.33528   1.38950   1.50776
 Alpha virt. eigenvalues --    1.65627   1.67246   1.96579   2.79877
          Condensed to atoms (all electrons):
               1          2          3          4          5          6
     1  C    5.093613   0.256809   0.360811   0.377698   0.377698  -0.044236
     2  N    0.256809   6.972411  -0.046285  -0.034770  -0.034770   0.338722
     3  H    0.360811  -0.046285   0.601590  -0.039205  -0.039205  -0.000942
     4  H    0.377698  -0.034770  -0.039205   0.512952  -0.024773   0.003497
     5  H    0.377698  -0.034770  -0.039205  -0.024773   0.512952  -0.002969
     6  H   -0.044236   0.338722  -0.000942   0.003497  -0.002969   0.444668
     7  H   -0.044236   0.338722  -0.000942  -0.002969   0.003497  -0.033580
               7
     1  C   -0.044236
     2  N    0.338722
     3  H   -0.000942
     4  H   -0.002969
     5  H    0.003497
     6  H   -0.033580
     7  H    0.444668
 Mulliken charges:
               1
     1  C   -0.378157
     2  N   -0.790839
     3  H    0.164178
     4  H    0.207570
     5  H    0.207570
     6  H    0.294839
     7  H    0.294839
 Sum of Mulliken charges =  -0.00000
 Mulliken charges with hydrogens summed into heavy atoms:
               1
     1  C    0.201160
     2  N   -0.201160
 Electronic spatial extent (au):  <R**2>=             95.1352
 Charge=             -0.0000 electrons
 Dipole moment (field-independent basis, Debye):
    X=             -1.3912    Y=              0.3642    Z=             -0.0000  Tot=              1.4381
 Quadrupole moment (field-independent basis, Debye-Ang):
   XX=            -15.0014   YY=            -13.4758   ZZ=            -12.3505
   XY=              2.1658   XZ=              0.0000   YZ=             -0.0000
 Traceless Quadrupole moment (field-independent basis, Debye-Ang):
   XX=             -1.3922   YY=              0.1334   ZZ=              1.2587
   XY=              2.1658   XZ=              0.0000   YZ=             -0.0000
 Octapole moment (field-independent basis, Debye-Ang**2):
  XXX=             -1.2074  YYY=             -3.3098  ZZZ=              0.0000  XYY=             -2.1860
  XXY=              0.0350  XXZ=              0.0000  XZZ=             -0.3693  YZZ=             -2.3290
  YYZ=             -0.0000  XYZ=              0.0000
 Hexadecapole moment (field-independent basis, Debye-Ang**3):
 XXXX=            -21.5671 YYYY=            -72.2151 ZZZZ=            -21.3984 XXXY=             -0.8688
 XXXZ=             -0.0000 YYYX=              1.5840 YYYZ=             -0.0000 ZZZX=              0.0000
 ZZZY=             -0.0000 XXYY=            -15.9549 XXZZ=             -6.9581 YYZZ=            -13.4978
 XXYZ=              0.0000 YYXZ=             -0.0000 ZZXY=              1.2788
 N-N= 4.200128972166D+01 E-N=-3.051160964315D+02  KE= 9.446114189755D+01
 Symmetry A'   KE= 8.994778316702D+01
 Symmetry A"   KE= 4.513358730530D+00
 Running external command "gaunbo6 R"
         input file       "/scr/ericg/reopt/Gau-7629.EIn"
         output file      "/scr/ericg/reopt/Gau-7629.EOu"
         message file     "/scr/ericg/reopt/Gau-7629.EMs"
         fchk file        "/scr/ericg/reopt/Gau-7629.EFC"
         mat. el file     "/scr/ericg/reopt/Gau-7629.EUF"

 Writing WrtUnf unformatted file "/scr/ericg/reopt/Gau-7629.EUF"
 Gaussian matrix elements                                         Version   2 NLab=11 Len12L=8 Len4L=8
 Write SHELL TO ATOM MAP                   from file     0 offset           0 length                  16 to matrix element file.
 Write SHELL TYPES                         from file     0 offset           0 length                  16 to matrix element file.
 Write NUMBER OF PRIMITIVES PER SHELL      from file     0 offset           0 length                  16 to matrix element file.
 Write PRIMITIVE EXPONENTS                 from file     0 offset           0 length                  27 to matrix element file.
 Write CONTRACTION COEFFICIENTS            from file     0 offset           0 length                  27 to matrix element file.
 Write P(S=P) CONTRACTION COEFFICIENTS     from file     0 offset           0 length                  27 to matrix element file.
 Write COORDINATES OF EACH SHELL           from file     0 offset           0 length                  48 to matrix element file.
 Write BONDS PER ATOM                      from file     0 offset           0 length                   7 to matrix element file.
 Write BONDED ATOMS                        from file     0 offset           0 length                  12 to matrix element file.
 Write BOND TYPES                          from file     0 offset           0 length                  12 to matrix element file.
 Write GAUSSIAN SCALARS                    from file   501 offset           0 to matrix element file.
 Write INTEGER ISO                         from file     0 offset           0 length                   7 to matrix element file.
 Write INTEGER SPIN                        from file     0 offset           0 length                   7 to matrix element file.
 Write REAL ZEFFECTIVE                     from file     0 offset           0 length                   7 to matrix element file.
 Write REAL QUADRUPOLEMOMENT               from file     0 offset           0 length                   7 to matrix element file.
 Write REAL GFACTOR                        from file     0 offset           0 length                   7 to matrix element file.
 Write REAL ZNUCLEAR                       from file     0 offset           0 length                   7 to matrix element file.
 Write MULLIKEN CHARGES                    from file     0 offset           0 length                   7 to matrix element file.
 Write NUCLEAR GRADIENT                    from file 10584 offset           0 length                  21 to matrix element file.
 Array NUCLEAR FORCE CONSTANTS              on  file 10585 does not exist.
 Write ELECTRIC DIPOLE MOMENT              from file     0 offset           0 length                   3 to matrix element file.
 Write NON-ADIABATIC COUPLING              from file 10810 offset           0 length                  21 to matrix element file.
 Write OVERLAP                             from file 10514 offset           0 length                 406 to matrix element file.
 Write CORE HAMILTONIAN ALPHA              from file 10515 offset           0 length                 406 to matrix element file.
 Write CORE HAMILTONIAN BETA               from file 10515 offset         406 length                 406 to matrix element file.
 Write KINETIC ENERGY                      from file 10516 offset           0 length                 406 to matrix element file.
 Write ORTHOGONAL BASIS                    from file 10685 offset           0 length                 784 to matrix element file.
 Write DIPOLE INTEGRALS                    from file 10518 offset           0 length                1218 to matrix element file.
 Array DIP VEL INTEGRALS                    on  file 10572 does not exist.
 Array R X DEL INTEGRALS                    on  file 10572 does not exist.
 Write ALPHA ORBITAL ENERGIES              from file     0 offset           0 length                  28 to matrix element file.
 Write ALPHA MO COEFFICIENTS               from file 10524 offset           0 length                 784 to matrix element file.
 Write ALPHA DENSITY MATRIX                from file     0 offset           0 length                 406 to matrix element file.
 Write ALPHA SCF DENSITY MATRIX            from file 10528 offset           0 length                 406 to matrix element file.
 Write ALPHA FOCK MATRIX                   from file 10536 offset           0 length                 406 to matrix element file.
 Write ALPHA SCF DENSITY                   from file     0 offset           0 length                 406 to matrix element file.
 No 2e integrals to process.
 Perform NBO analysis...executing G16NBO...


 NATURAL BOND ORBITALS (Summary):

                                                     Principal Delocalizations
           NBO                 Occupancy    Energy   (geminal,vicinal,remote)
 ===============================================================================
 Molecular unit  1  (CH5N)
 ------ Lewis --------------------------------------
    1. CR ( 1) C  1             1.99978   -11.17841  18(g)
    2. CR ( 1) N  2             1.99984   -15.42893  22(g)
    3. LP ( 1) N  2             1.97254    -0.40262  11(v),12(v),13(v)
    4. BD ( 1) C  1- N  2       1.99876    -0.80640
    5. BD ( 1) C  1- H  3       1.99852    -0.65498  20(v)
    6. BD ( 1) C  1- H  4       1.99369    -0.65294  14(v)
    7. BD ( 1) C  1- H  5       1.99369    -0.65294  15(v)
    8. BD ( 1) N  2- H  6       1.99538    -0.77271  12(v)
    9. BD ( 1) N  2- H  7       1.99538    -0.77271  13(v)
 ------ non-Lewis ----------------------------------
   10. BD*( 1) C  1- N  2       0.00009     0.57384
   11. BD*( 1) C  1- H  3       0.01973     0.69274
   12. BD*( 1) C  1- H  4       0.00727     0.71376
   13. BD*( 1) C  1- H  5       0.00727     0.71376
   14. BD*( 1) N  2- H  6       0.00441     0.70267
   15. BD*( 1) N  2- H  7       0.00441     0.70267
   16. RY ( 1) C  1             0.00089     0.98638
   17. RY ( 2) C  1             0.00052     1.01775
   18. RY ( 3) C  1             0.00014     1.86386
   19. RY ( 4) C  1             0.00001     1.06452
   20. RY ( 1) N  2             0.00132     1.49885
   21. RY ( 2) N  2             0.00044     1.61033
   22. RY ( 3) N  2             0.00030     2.29920
   23. RY ( 4) N  2             0.00001     1.98926
   24. RY ( 1) H  3             0.00171     0.94802
   25. RY ( 1) H  4             0.00087     0.94235
   26. RY ( 1) H  5             0.00087     0.94235
   27. RY ( 1) H  6             0.00108     0.97877
   28. RY ( 1) H  7             0.00108     0.97877
          -------------------------------
                 Total Lewis   17.94759  ( 99.7088%)
           Valence non-Lewis    0.04319  (  0.2399%)
           Rydberg non-Lewis    0.00922  (  0.0512%)
          -------------------------------
               Total unit  1   18.00000  (100.0000%)
              Charge unit  1    0.00000

 $CHOOSE
   LONE 2 1 END
   BOND S 1 2 S 1 3 S 1 4 S 1 5 S 2 6 S 2 7 END
 $END
 Maximum scratch memory used by G16NBO was 9478 words (0.07 MB)


 LEWIS: Delete all non-Lewis NBOs
 Deletion of the following orbitals from the NBO Fock matrix:
   10  11  12  13  14  15  16  17  18  19  20  21  22  23  24  25  26  27  28

 Orbital occupancies:

       Orbital                         No deletions  This deletion    Change
 ------------------------------------------------------------------------------
    1. CR ( 1) C  1                      1.99978        2.00000       0.00022
    2. CR ( 1) N  2                      1.99984        2.00000       0.00016
    3. LP ( 1) N  2                      1.97254        2.00000       0.02746
    4. BD ( 1) C  1- N  2                1.99876        2.00000       0.00124
    5. BD ( 1) C  1- H  3                1.99852        2.00000       0.00148
    6. BD ( 1) C  1- H  4                1.99369        2.00000       0.00631
    7. BD ( 1) C  1- H  5                1.99369        2.00000       0.00631
    8. BD ( 1) N  2- H  6                1.99538        2.00000       0.00462
    9. BD ( 1) N  2- H  7                1.99538        2.00000       0.00462
   10. BD*( 1) C  1- N  2                0.00009        0.00000      -0.00009
   11. BD*( 1) C  1- H  3                0.01973        0.00000      -0.01973
   12. BD*( 1) C  1- H  4                0.00727        0.00000      -0.00727
   13. BD*( 1) C  1- H  5                0.00727        0.00000      -0.00727
   14. BD*( 1) N  2- H  6                0.00441        0.00000      -0.00441
   15. BD*( 1) N  2- H  7                0.00441        0.00000      -0.00441
   16. RY ( 1) C  1                      0.00089        0.00000      -0.00089
   17. RY ( 2) C  1                      0.00052        0.00000      -0.00052
   18. RY ( 3) C  1                      0.00014        0.00000      -0.00014
   19. RY ( 4) C  1                      0.00001        0.00000      -0.00001
   20. RY ( 1) N  2                      0.00132        0.00000      -0.00132
   21. RY ( 2) N  2                      0.00044        0.00000      -0.00044
   22. RY ( 3) N  2                      0.00030        0.00000      -0.00030
   23. RY ( 4) N  2                      0.00001        0.00000      -0.00001
   24. RY ( 1) H  3                      0.00171        0.00000      -0.00171
   25. RY ( 1) H  4                      0.00087        0.00000      -0.00087
   26. RY ( 1) H  5                      0.00087        0.00000      -0.00087
   27. RY ( 1) H  6                      0.00108        0.00000      -0.00108
   28. RY ( 1) H  7                      0.00108        0.00000      -0.00108

 NEXT STEP:  Perform one SCF cycle to evaluate the energy of the new density
             matrix constructed from the deleted NBO Fock matrix.

 ------------------------------------------------------------------------------
 Opening RunExU unformatted file "/scr/ericg/reopt/Gau-7629.EUF"
 Read unf file /scr/ericg/reopt/Gau-7629.EUF:
 Label Gaussian matrix elements                                         IVers= 1 NLab= 2 Version=ES64L-G16RevB.01
 Title Methylamine...reoptimization with LEWIS deletions               
 NAtoms=     7 NBasis=    28 NBsUse=    28 ICharg=     0 Multip=     1 NE=    18 Len12L=8 Len4L=8 IOpCl= 0 ICGU= -1
 GAUSSIAN SCALARS                    NI= 1 NR= 1 NTot=       1 LenBuf=    2 NRI=1 N=    1000
 ALPHA DENSITY MATRIX                NI= 0 NR= 1 NTot=     406 LenBuf= 4000 NRI=1 N=     -28      28
 Store file  10528 Len=     406.
 ALPHA MO COEFFICIENTS               NI= 0 NR= 1 NTot=     784 LenBuf= 4000 NRI=1 N=      28      28
 Store file  10524 Len=     784.
 NPA CHARGES                         NI= 0 NR= 1 NTot=       7 LenBuf= 4000 NRI=1 N=       7
 Recovered energy= -94.6816558352     dipole=     -0.547327357469      0.143299040882     -0.000000000000
 Keep R1 ints in memory in symmetry-blocked form, NReq=892273.
 Requested convergence on RMS density matrix=1.00D-08 within   1 cycles.
 Requested convergence on MAX density matrix=1.00D-06.
 Requested convergence on             energy=1.00D-06.
 No special actions if energy rises.
 Fock symm off for IB=2 I1=    1 I=   21 J=   10 Cut=1.00D-07 Err=4.01D-02
 Fock matrix is not symmetric: symmetry in diagonalization turned off.
 >>>>>>>>>> Convergence criterion not met.
 SCF Done:  E(RHF) =  -94.6290454263     A.U. after    2 cycles
            NFock=  1  Conv=0.93D-02     -V/T= 2.0021
 Running external command "gaunbo6 R"
         input file       "/scr/ericg/reopt/Gau-7629.EIn"
         output file      "/scr/ericg/reopt/Gau-7629.EOu"
         message file     "/scr/ericg/reopt/Gau-7629.EMs"
         fchk file        "/scr/ericg/reopt/Gau-7629.EFC"
         mat. el file     "/scr/ericg/reopt/Gau-7629.EUF"

 Writing WrtUnf unformatted file "/scr/ericg/reopt/Gau-7629.EUF"
 Gaussian matrix elements                                         Version   2 NLab=11 Len12L=8 Len4L=8
 Write SHELL TO ATOM MAP                   from file     0 offset           0 length                  16 to matrix element file.
 Write SHELL TYPES                         from file     0 offset           0 length                  16 to matrix element file.
 Write NUMBER OF PRIMITIVES PER SHELL      from file     0 offset           0 length                  16 to matrix element file.
 Write PRIMITIVE EXPONENTS                 from file     0 offset           0 length                  27 to matrix element file.
 Write CONTRACTION COEFFICIENTS            from file     0 offset           0 length                  27 to matrix element file.
 Write P(S=P) CONTRACTION COEFFICIENTS     from file     0 offset           0 length                  27 to matrix element file.
 Write COORDINATES OF EACH SHELL           from file     0 offset           0 length                  48 to matrix element file.
 Write BONDS PER ATOM                      from file     0 offset           0 length                   7 to matrix element file.
 Write BONDED ATOMS                        from file     0 offset           0 length                  12 to matrix element file.
 Write BOND TYPES                          from file     0 offset           0 length                  12 to matrix element file.
 Write GAUSSIAN SCALARS                    from file   501 offset           0 to matrix element file.
 Write INTEGER ISO                         from file     0 offset           0 length                   7 to matrix element file.
 Write INTEGER SPIN                        from file     0 offset           0 length                   7 to matrix element file.
 Write REAL ZEFFECTIVE                     from file     0 offset           0 length                   7 to matrix element file.
 Write REAL QUADRUPOLEMOMENT               from file     0 offset           0 length                   7 to matrix element file.
 Write REAL GFACTOR                        from file     0 offset           0 length                   7 to matrix element file.
 Write REAL ZNUCLEAR                       from file     0 offset           0 length                   7 to matrix element file.
 Write MULLIKEN CHARGES                    from file     0 offset           0 length                   7 to matrix element file.
 Write NUCLEAR GRADIENT                    from file 10584 offset           0 length                  21 to matrix element file.
 Array NUCLEAR FORCE CONSTANTS              on  file 10585 does not exist.
 Write ELECTRIC DIPOLE MOMENT              from file     0 offset           0 length                   3 to matrix element file.
 Write NON-ADIABATIC COUPLING              from file 10810 offset           0 length                  21 to matrix element file.
 Write OVERLAP                             from file 10514 offset           0 length                 406 to matrix element file.
 Write CORE HAMILTONIAN ALPHA              from file 10515 offset           0 length                 406 to matrix element file.
 Write CORE HAMILTONIAN BETA               from file 10515 offset         406 length                 406 to matrix element file.
 Write KINETIC ENERGY                      from file 10516 offset           0 length                 406 to matrix element file.
 Write ORTHOGONAL BASIS                    from file 10685 offset           0 length                 784 to matrix element file.
 Write DIPOLE INTEGRALS                    from file 10518 offset           0 length                1218 to matrix element file.
 Array DIP VEL INTEGRALS                    on  file 10572 does not exist.
 Array R X DEL INTEGRALS                    on  file 10572 does not exist.
 Write ALPHA ORBITAL ENERGIES              from file     0 offset           0 length                  28 to matrix element file.
 Write ALPHA MO COEFFICIENTS               from file 10524 offset           0 length                 784 to matrix element file.
 Write ALPHA DENSITY MATRIX                from file     0 offset           0 length                 406 to matrix element file.
 Write ALPHA SCF DENSITY MATRIX            from file 10528 offset           0 length                 406 to matrix element file.
 Write ALPHA FOCK MATRIX                   from file 10536 offset           0 length                 406 to matrix element file.
 Write ALPHA SCF DENSITY                   from file     0 offset           0 length                 406 to matrix element file.
 No 2e integrals to process.
 Perform NBO analysis...executing G16NBO...

 ------------------------------------------------------------------------------
   Energy of deletion :        -94.629045426
     Total SCF energy :        -94.681655835
                          -------------------
        Energy change :          0.052610 a.u.,          33.014 kcal/mol
 ------------------------------------------------------------------------------

 Opening RunExU unformatted file "/scr/ericg/reopt/Gau-7629.EUF"
 Read unf file /scr/ericg/reopt/Gau-7629.EUF:
 Label Gaussian matrix elements                                         IVers= 1 NLab= 2 Version=ES64L-G16RevB.01
 Title Methylamine...reoptimization with LEWIS deletions               
 NAtoms=     7 NBasis=    28 NBsUse=    28 ICharg=     0 Multip=     1 NE=    18 Len12L=8 Len4L=8 IOpCl= 0 ICGU= -1
 GAUSSIAN SCALARS                    NI= 1 NR= 1 NTot=       1 LenBuf=    2 NRI=1 N=    1000
 Recovered energy= -94.6290454263     dipole=     -0.547327357469      0.143299040882     -0.000000000000

 NEF-NEF-NEF-NEF-NEF-NEF-NEF-NEF-NEF-NEF-NEF-NEF-NEF-NEF-NEF-NEF-NEF-NEF-
 NUMERICAL EIGENVECTOR FOLLOWING MINIMUM SEARCH
 NUMERICALLY ESTIMATING GRADIENTS
 ITERATION   0 VARIABLE  1 STEP  1

 NEF-NEF-NEF-NEF-NEF-NEF-NEF-NEF-NEF-NEF-NEF-NEF-NEF-NEF-NEF-NEF-NEF-NEF-
 ---------------------------------------------------------------------------------------------------
                            Z-MATRIX (ANGSTROMS AND DEGREES)
   CD    Cent   Atom    N1       Length/X        N2       Alpha/Y        N3        Beta/Z          J
 ---------------------------------------------------------------------------------------------------
      1      1  C 
      2      2  N        1   1.471542(     1)
      3      3  H        1   1.090100(     2)      2  114.766(     7)
      4      4  H        1   1.082500(     3)      2  108.947(     8)      3  121.422(    12)      0
      5      5  H        1   1.082500(     4)      2  108.947(     9)      3 -121.422(    13)      0
      6      6  H        2   1.003500(     5)      1  113.650(    10)      3   64.240(    14)      0
      7      7  H        2   1.003500(     6)      1  113.650(    11)      3  -64.240(    15)      0
 ---------------------------------------------------------------------------------------------------
                         Z-Matrix orientation:                         
 ---------------------------------------------------------------------
 Center     Atomic      Atomic             Coordinates (Angstroms)
 Number     Number       Type             X           Y           Z
 ---------------------------------------------------------------------
      1          6           0        0.000000    0.000000    0.000000
      2          7           0        0.000000    0.000000    1.471542
      3          1           0        0.989837    0.000000   -0.456663
      4          1           0       -0.533776   -0.873697   -0.351486
      5          1           0       -0.533776    0.873697   -0.351486
      6          1           0        0.399492    0.827875    1.874087
      7          1           0        0.399492   -0.827875    1.874087
 ---------------------------------------------------------------------
                    Distance matrix (angstroms):
                    1          2          3          4          5
     1  C    0.000000
     2  N    1.471542   0.000000
     3  H    1.090100   2.167430   0.000000
     4  H    1.082500   2.090860   1.759490   0.000000
     5  H    1.082500   2.090860   1.759490   1.747395   0.000000
     6  H    2.087384   1.003500   2.542887   2.952882   2.413765
     7  H    2.087384   1.003500   2.542887   2.413765   2.952882
                    6          7
     6  H    0.000000
     7  H    1.655749   0.000000
 Stoichiometry    CH5N
 Framework group  CS[SG(CHN),X(H4)]
 Deg. of freedom     9
 Full point group                 CS      NOp   2
 Largest Abelian subgroup         CS      NOp   2
 Largest concise Abelian subgroup CS      NOp   2
                         Standard orientation:                         
 ---------------------------------------------------------------------
 Center     Atomic      Atomic             Coordinates (Angstroms)
 Number     Number       Type             X           Y           Z
 ---------------------------------------------------------------------
      1          6           0        0.040070    0.716074    0.000000
      2          7           0        0.040070   -0.755468   -0.000000
      3          1           0       -0.949767    1.172737   -0.000000
      4          1           0        0.573847    1.067560    0.873697
      5          1           0        0.573847    1.067560   -0.873697
      6          1           0       -0.359422   -1.158013   -0.827875
      7          1           0       -0.359422   -1.158013    0.827875
 ---------------------------------------------------------------------
 Rotational constants (GHZ):         106.5236278          22.5953976          21.5399484
 Standard basis: 3-21G (6D, 7F)
 There are    20 symmetry adapted cartesian basis functions of A'  symmetry.
 There are     8 symmetry adapted cartesian basis functions of A"  symmetry.
 There are    20 symmetry adapted basis functions of A'  symmetry.
 There are     8 symmetry adapted basis functions of A"  symmetry.
    28 basis functions,    45 primitive gaussians,    28 cartesian basis functions
     9 alpha electrons        9 beta electrons
       nuclear repulsion energy        41.9964424809 Hartrees.
 NAtoms=    7 NActive=    7 NUniq=    5 SFac= 1.96D+00 NAtFMM=   60 NAOKFM=F Big=F
 Integral buffers will be    131072 words long.
 Raffenetti 1 integral format.
 Two-electron integral symmetry is turned on.
 One-electron integrals computed using PRISM.
 NBasis=    28 RedAO= T EigKep=  2.61D-02  NBF=    20     8
 NBsUse=    28 1.00D-06 EigRej= -1.00D+00 NBFU=    20     8
 Initial guess from the checkpoint file:  "/scr/ericg/reopt/Gau-7629.chk"
 B after Tr=    -0.000000   -0.000000    0.000000
         Rot=    1.000000   -0.000000   -0.000000   -0.000005 Ang=  -0.00 deg.
 Initial guess orbital symmetries:
       Occupied  (A') (A') (A') (A') (A") (A') (A') (A") (A')
       Virtual   (A') (A') (A") (A') (A") (A') (A") (A') (A') (A')
                 (A") (A') (A') (A") (A') (A") (A') (A') (A')
 ExpMin= 1.83D-01 ExpMax= 2.43D+02 ExpMxC= 2.43D+02 IAcc=3 IRadAn=         5 AccDes= 0.00D+00
 Harris functional with IExCor=  205 and IRadAn=       5 diagonalized for initial guess.
 HarFok:  IExCor=  205 AccDes= 0.00D+00 IRadAn=         5 IDoV= 1 UseB2=F ITyADJ=14
 ICtDFT=  3500011 ScaDFX=  1.000000  1.000000  1.000000  1.000000
 FoFCou: FMM=F IPFlag=           0 FMFlag=      100000 FMFlg1=           0
         NFxFlg=           0 DoJE=T BraDBF=F KetDBF=T FulRan=T
         wScrn=  0.000000 ICntrl=       500 IOpCl=  0 I1Cent=   200000004 NGrid=           0
         NMat0=    1 NMatS0=      1 NMatT0=    0 NMatD0=    1 NMtDS0=    0 NMtDT0=    0
 Petite list used in FoFCou.
 Keep R1 ints in memory in symmetry-blocked form, NReq=892330.
 Requested convergence on RMS density matrix=1.00D-08 within 128 cycles.
 Requested convergence on MAX density matrix=1.00D-06.
 Requested convergence on             energy=1.00D-06.
 No special actions if energy rises.
 SCF Done:  E(RHF) =  -94.6816558674     A.U. after   10 cycles
            NFock= 10  Conv=0.63D-08     -V/T= 2.0023

 **********************************************************************

            Population analysis using the SCF Density.

 **********************************************************************

 Orbital symmetries:
       Occupied  (A') (A') (A') (A') (A") (A') (A') (A") (A')
       Virtual   (A') (A') (A") (A') (A") (A') (A") (A') (A') (A')
                 (A") (A') (A') (A") (A') (A") (A') (A') (A')
 The electronic state is 1-A'.
 Alpha  occ. eigenvalues --  -15.44144 -11.18053  -1.15473  -0.89646  -0.65839
 Alpha  occ. eigenvalues --   -0.59103  -0.55254  -0.51704  -0.36316
 Alpha virt. eigenvalues --    0.27433   0.32673   0.33698   0.36225   0.38905
 Alpha virt. eigenvalues --    0.45569   0.93447   0.98038   0.99080   1.26710
 Alpha virt. eigenvalues --    1.28006   1.32872   1.33527   1.38944   1.50775
 Alpha virt. eigenvalues --    1.65627   1.67250   1.96581   2.79856
          Condensed to atoms (all electrons):
               1          2          3          4          5          6
     1  C    5.093667   0.256912   0.360784   0.377679   0.377679  -0.044214
     2  N    0.256912   6.972162  -0.046240  -0.034739  -0.034739   0.338701
     3  H    0.360784  -0.046240   0.601520  -0.039199  -0.039199  -0.000940
     4  H    0.377679  -0.034739  -0.039199   0.512928  -0.024780   0.003493
     5  H    0.377679  -0.034739  -0.039199  -0.024780   0.512928  -0.002964
     6  H   -0.044214   0.338701  -0.000940   0.003493  -0.002964   0.444668
     7  H   -0.044214   0.338701  -0.000940  -0.002964   0.003493  -0.033584
               7
     1  C   -0.044214
     2  N    0.338701
     3  H   -0.000940
     4  H   -0.002964
     5  H    0.003493
     6  H   -0.033584
     7  H    0.444668
 Mulliken charges:
               1
     1  C   -0.378296
     2  N   -0.790759
     3  H    0.164214
     4  H    0.207581
     5  H    0.207581
     6  H    0.294839
     7  H    0.294839
 Sum of Mulliken charges =   0.00000
 Mulliken charges with hydrogens summed into heavy atoms:
               1
     1  C    0.201081
     2  N   -0.201081
 Electronic spatial extent (au):  <R**2>=             95.1531
 Charge=              0.0000 electrons
 Dipole moment (field-independent basis, Debye):
    X=             -1.3913    Y=              0.3648    Z=              0.0000  Tot=              1.4383
 Quadrupole moment (field-independent basis, Debye-Ang):
   XX=            -15.0015   YY=            -13.4745   ZZ=            -12.3507
   XY=              2.1660   XZ=             -0.0000   YZ=             -0.0000
 Traceless Quadrupole moment (field-independent basis, Debye-Ang):
   XX=             -1.3926   YY=              0.1344   ZZ=              1.2582
   XY=              2.1660   XZ=             -0.0000   YZ=             -0.0000
 Octapole moment (field-independent basis, Debye-Ang**2):
  XXX=             -1.2077  YYY=             -3.3097  ZZZ=              0.0000  XYY=             -2.1868
  XXY=              0.0357  XXZ=              0.0000  XZZ=             -0.3692  YZZ=             -2.3290
  YYZ=              0.0000  XYZ=             -0.0000
 Hexadecapole moment (field-independent basis, Debye-Ang**3):
 XXXX=            -21.5667 YYYY=            -72.2359 ZZZZ=            -21.3985 XXXY=             -0.8694
 XXXZ=             -0.0000 YYYX=              1.5847 YYYZ=             -0.0000 ZZZX=             -0.0000
 ZZZY=             -0.0000 XXYY=            -15.9582 XXZZ=             -6.9581 YYZZ=            -13.5004
 XXYZ=             -0.0000 YYXZ=             -0.0000 ZZXY=              1.2790
 N-N= 4.199644248087D+01 E-N=-3.051059760802D+02  KE= 9.446040550552D+01
 Symmetry A'   KE= 8.994709179153D+01
 Symmetry A"   KE= 4.513313713993D+00
 Running external command "gaunbo6 R"
         input file       "/scr/ericg/reopt/Gau-7629.EIn"
         output file      "/scr/ericg/reopt/Gau-7629.EOu"
         message file     "/scr/ericg/reopt/Gau-7629.EMs"
         fchk file        "/scr/ericg/reopt/Gau-7629.EFC"
         mat. el file     "/scr/ericg/reopt/Gau-7629.EUF"

 Writing WrtUnf unformatted file "/scr/ericg/reopt/Gau-7629.EUF"
 Gaussian matrix elements                                         Version   2 NLab=11 Len12L=8 Len4L=8
 Write SHELL TO ATOM MAP                   from file     0 offset           0 length                  16 to matrix element file.
 Write SHELL TYPES                         from file     0 offset           0 length                  16 to matrix element file.
 Write NUMBER OF PRIMITIVES PER SHELL      from file     0 offset           0 length                  16 to matrix element file.
 Write PRIMITIVE EXPONENTS                 from file     0 offset           0 length                  27 to matrix element file.
 Write CONTRACTION COEFFICIENTS            from file     0 offset           0 length                  27 to matrix element file.
 Write P(S=P) CONTRACTION COEFFICIENTS     from file     0 offset           0 length                  27 to matrix element file.
 Write COORDINATES OF EACH SHELL           from file     0 offset           0 length                  48 to matrix element file.
 Write BONDS PER ATOM                      from file     0 offset           0 length                   7 to matrix element file.
 Write BONDED ATOMS                        from file     0 offset           0 length                  12 to matrix element file.
 Write BOND TYPES                          from file     0 offset           0 length                  12 to matrix element file.
 Write GAUSSIAN SCALARS                    from file   501 offset           0 to matrix element file.
 Write INTEGER ISO                         from file     0 offset           0 length                   7 to matrix element file.
 Write INTEGER SPIN                        from file     0 offset           0 length                   7 to matrix element file.
 Write REAL ZEFFECTIVE                     from file     0 offset           0 length                   7 to matrix element file.
 Write REAL QUADRUPOLEMOMENT               from file     0 offset           0 length                   7 to matrix element file.
 Write REAL GFACTOR                        from file     0 offset           0 length                   7 to matrix element file.
 Write REAL ZNUCLEAR                       from file     0 offset           0 length                   7 to matrix element file.
 Write MULLIKEN CHARGES                    from file     0 offset           0 length                   7 to matrix element file.
 Write NUCLEAR GRADIENT                    from file 10584 offset           0 length                  21 to matrix element file.
 Array NUCLEAR FORCE CONSTANTS              on  file 10585 does not exist.
 Write ELECTRIC DIPOLE MOMENT              from file     0 offset           0 length                   3 to matrix element file.
 Write NON-ADIABATIC COUPLING              from file 10810 offset           0 length                  21 to matrix element file.
 Write OVERLAP                             from file 10514 offset           0 length                 406 to matrix element file.
 Write CORE HAMILTONIAN ALPHA              from file 10515 offset           0 length                 406 to matrix element file.
 Write CORE HAMILTONIAN BETA               from file 10515 offset         406 length                 406 to matrix element file.
 Write KINETIC ENERGY                      from file 10516 offset           0 length                 406 to matrix element file.
 Write ORTHOGONAL BASIS                    from file 10685 offset           0 length                 784 to matrix element file.
 Write DIPOLE INTEGRALS                    from file 10518 offset           0 length                1218 to matrix element file.
 Array DIP VEL INTEGRALS                    on  file 10572 does not exist.
 Array R X DEL INTEGRALS                    on  file 10572 does not exist.
 Write ALPHA ORBITAL ENERGIES              from file     0 offset           0 length                  28 to matrix element file.
 Write ALPHA MO COEFFICIENTS               from file 10524 offset           0 length                 784 to matrix element file.
 Write ALPHA DENSITY MATRIX                from file     0 offset           0 length                 406 to matrix element file.
 Write ALPHA SCF DENSITY MATRIX            from file 10528 offset           0 length                 406 to matrix element file.
 Write ALPHA FOCK MATRIX                   from file 10536 offset           0 length                 406 to matrix element file.
 Write ALPHA SCF DENSITY                   from file     0 offset           0 length                 406 to matrix element file.
 No 2e integrals to process.
 Perform NBO analysis...executing G16NBO...


 NATURAL BOND ORBITALS (Summary):

                                                     Principal Delocalizations
           NBO                 Occupancy    Energy   (geminal,vicinal,remote)
 ===============================================================================
 Molecular unit  1  (CH5N)
 ------ Lewis --------------------------------------
    1. CR ( 1) C  1             1.99978   -11.17844  18(g)
    2. CR ( 1) N  2             1.99984   -15.42894  22(g)
    3. LP ( 1) N  2             1.97257    -0.40264  11(v),12(v),13(v)
    4. BD ( 1) C  1- N  2       1.99876    -0.80612
    5. BD ( 1) C  1- H  3       1.99852    -0.65500  20(v)
    6. BD ( 1) C  1- H  4       1.99370    -0.65296  14(v)
    7. BD ( 1) C  1- H  5       1.99370    -0.65296  15(v)
    8. BD ( 1) N  2- H  6       1.99539    -0.77273  12(v)
    9. BD ( 1) N  2- H  7       1.99539    -0.77273  13(v)
 ------ non-Lewis ----------------------------------
   10. BD*( 1) C  1- N  2       0.00009     0.57342
   11. BD*( 1) C  1- H  3       0.01971     0.69273
   12. BD*( 1) C  1- H  4       0.00726     0.71374
   13. BD*( 1) C  1- H  5       0.00726     0.71374
   14. BD*( 1) N  2- H  6       0.00441     0.70268
   15. BD*( 1) N  2- H  7       0.00441     0.70268
   16. RY ( 1) C  1             0.00089     0.98659
   17. RY ( 2) C  1             0.00052     1.01776
   18. RY ( 3) C  1             0.00014     1.86407
   19. RY ( 4) C  1             0.00001     1.06428
   20. RY ( 1) N  2             0.00132     1.49888
   21. RY ( 2) N  2             0.00044     1.61032
   22. RY ( 3) N  2             0.00030     2.29865
   23. RY ( 4) N  2             0.00001     1.98968
   24. RY ( 1) H  3             0.00171     0.94799
   25. RY ( 1) H  4             0.00087     0.94233
   26. RY ( 1) H  5             0.00087     0.94233
   27. RY ( 1) H  6             0.00108     0.97875
   28. RY ( 1) H  7             0.00108     0.97875
          -------------------------------
                 Total Lewis   17.94765  ( 99.7092%)
           Valence non-Lewis    0.04313  (  0.2396%)
           Rydberg non-Lewis    0.00922  (  0.0512%)
          -------------------------------
               Total unit  1   18.00000  (100.0000%)
              Charge unit  1    0.00000

 $CHOOSE
   LONE 2 1 END
   BOND S 1 2 S 1 3 S 1 4 S 1 5 S 2 6 S 2 7 END
 $END
 Maximum scratch memory used by G16NBO was 9478 words (0.07 MB)


 LEWIS: Delete all non-Lewis NBOs
 Deletion of the following orbitals from the NBO Fock matrix:
   10  11  12  13  14  15  16  17  18  19  20  21  22  23  24  25  26  27  28

 Orbital occupancies:

       Orbital                         No deletions  This deletion    Change
 ------------------------------------------------------------------------------
    1. CR ( 1) C  1                      1.99978        2.00000       0.00022
    2. CR ( 1) N  2                      1.99984        2.00000       0.00016
    3. LP ( 1) N  2                      1.97257        2.00000       0.02743
    4. BD ( 1) C  1- N  2                1.99876        2.00000       0.00124
    5. BD ( 1) C  1- H  3                1.99852        2.00000       0.00148
    6. BD ( 1) C  1- H  4                1.99370        2.00000       0.00630
    7. BD ( 1) C  1- H  5                1.99370        2.00000       0.00630
    8. BD ( 1) N  2- H  6                1.99539        2.00000       0.00461
    9. BD ( 1) N  2- H  7                1.99539        2.00000       0.00461
   10. BD*( 1) C  1- N  2                0.00009        0.00000      -0.00009
   11. BD*( 1) C  1- H  3                0.01971        0.00000      -0.01971
   12. BD*( 1) C  1- H  4                0.00726        0.00000      -0.00726
   13. BD*( 1) C  1- H  5                0.00726        0.00000      -0.00726
   14. BD*( 1) N  2- H  6                0.00441        0.00000      -0.00441
   15. BD*( 1) N  2- H  7                0.00441        0.00000      -0.00441
   16. RY ( 1) C  1                      0.00089        0.00000      -0.00089
   17. RY ( 2) C  1                      0.00052        0.00000      -0.00052
   18. RY ( 3) C  1                      0.00014        0.00000      -0.00014
   19. RY ( 4) C  1                      0.00001        0.00000      -0.00001
   20. RY ( 1) N  2                      0.00132        0.00000      -0.00132
   21. RY ( 2) N  2                      0.00044        0.00000      -0.00044
   22. RY ( 3) N  2                      0.00030        0.00000      -0.00030
   23. RY ( 4) N  2                      0.00001        0.00000      -0.00001
   24. RY ( 1) H  3                      0.00171        0.00000      -0.00171
   25. RY ( 1) H  4                      0.00087        0.00000      -0.00087
   26. RY ( 1) H  5                      0.00087        0.00000      -0.00087
   27. RY ( 1) H  6                      0.00108        0.00000      -0.00108
   28. RY ( 1) H  7                      0.00108        0.00000      -0.00108

 NEXT STEP:  Perform one SCF cycle to evaluate the energy of the new density
             matrix constructed from the deleted NBO Fock matrix.

 ------------------------------------------------------------------------------
 Opening RunExU unformatted file "/scr/ericg/reopt/Gau-7629.EUF"
 Read unf file /scr/ericg/reopt/Gau-7629.EUF:
 Label Gaussian matrix elements                                         IVers= 1 NLab= 2 Version=ES64L-G16RevB.01
 Title Methylamine...reoptimization with LEWIS deletions               
 NAtoms=     7 NBasis=    28 NBsUse=    28 ICharg=     0 Multip=     1 NE=    18 Len12L=8 Len4L=8 IOpCl= 0 ICGU= -1
 GAUSSIAN SCALARS                    NI= 1 NR= 1 NTot=       1 LenBuf=    2 NRI=1 N=    1000
 ALPHA DENSITY MATRIX                NI= 0 NR= 1 NTot=     406 LenBuf= 4000 NRI=1 N=     -28      28
 Store file  10528 Len=     406.
 ALPHA MO COEFFICIENTS               NI= 0 NR= 1 NTot=     784 LenBuf= 4000 NRI=1 N=      28      28
 Store file  10524 Len=     784.
 NPA CHARGES                         NI= 0 NR= 1 NTot=       7 LenBuf= 4000 NRI=1 N=       7
 Recovered energy= -94.6816558674     dipole=     -0.547365544606      0.143538068621      0.000000000000
 Keep R1 ints in memory in symmetry-blocked form, NReq=892273.
 Requested convergence on RMS density matrix=1.00D-08 within   1 cycles.
 Requested convergence on MAX density matrix=1.00D-06.
 Requested convergence on             energy=1.00D-06.
 No special actions if energy rises.
 Fock symm off for IB=2 I1=    1 I=   21 J=   10 Cut=1.00D-07 Err=4.00D-02
 Fock matrix is not symmetric: symmetry in diagonalization turned off.
 >>>>>>>>>> Convergence criterion not met.
 SCF Done:  E(RHF) =  -94.6291035093     A.U. after    2 cycles
            NFock=  1  Conv=0.93D-02     -V/T= 2.0022
 Running external command "gaunbo6 R"
         input file       "/scr/ericg/reopt/Gau-7629.EIn"
         output file      "/scr/ericg/reopt/Gau-7629.EOu"
         message file     "/scr/ericg/reopt/Gau-7629.EMs"
         fchk file        "/scr/ericg/reopt/Gau-7629.EFC"
         mat. el file     "/scr/ericg/reopt/Gau-7629.EUF"

 Writing WrtUnf unformatted file "/scr/ericg/reopt/Gau-7629.EUF"
 Gaussian matrix elements                                         Version   2 NLab=11 Len12L=8 Len4L=8
 Write SHELL TO ATOM MAP                   from file     0 offset           0 length                  16 to matrix element file.
 Write SHELL TYPES                         from file     0 offset           0 length                  16 to matrix element file.
 Write NUMBER OF PRIMITIVES PER SHELL      from file     0 offset           0 length                  16 to matrix element file.
 Write PRIMITIVE EXPONENTS                 from file     0 offset           0 length                  27 to matrix element file.
 Write CONTRACTION COEFFICIENTS            from file     0 offset           0 length                  27 to matrix element file.
 Write P(S=P) CONTRACTION COEFFICIENTS     from file     0 offset           0 length                  27 to matrix element file.
 Write COORDINATES OF EACH SHELL           from file     0 offset           0 length                  48 to matrix element file.
 Write BONDS PER ATOM                      from file     0 offset           0 length                   7 to matrix element file.
 Write BONDED ATOMS                        from file     0 offset           0 length                  12 to matrix element file.
 Write BOND TYPES                          from file     0 offset           0 length                  12 to matrix element file.
 Write GAUSSIAN SCALARS                    from file   501 offset           0 to matrix element file.
 Write INTEGER ISO                         from file     0 offset           0 length                   7 to matrix element file.
 Write INTEGER SPIN                        from file     0 offset           0 length                   7 to matrix element file.
 Write REAL ZEFFECTIVE                     from file     0 offset           0 length                   7 to matrix element file.
 Write REAL QUADRUPOLEMOMENT               from file     0 offset           0 length                   7 to matrix element file.
 Write REAL GFACTOR                        from file     0 offset           0 length                   7 to matrix element file.
 Write REAL ZNUCLEAR                       from file     0 offset           0 length                   7 to matrix element file.
 Write MULLIKEN CHARGES                    from file     0 offset           0 length                   7 to matrix element file.
 Write NUCLEAR GRADIENT                    from file 10584 offset           0 length                  21 to matrix element file.
 Array NUCLEAR FORCE CONSTANTS              on  file 10585 does not exist.
 Write ELECTRIC DIPOLE MOMENT              from file     0 offset           0 length                   3 to matrix element file.
 Write NON-ADIABATIC COUPLING              from file 10810 offset           0 length                  21 to matrix element file.
 Write OVERLAP                             from file 10514 offset           0 length                 406 to matrix element file.
 Write CORE HAMILTONIAN ALPHA              from file 10515 offset           0 length                 406 to matrix element file.
 Write CORE HAMILTONIAN BETA               from file 10515 offset         406 length                 406 to matrix element file.
 Write KINETIC ENERGY                      from file 10516 offset           0 length                 406 to matrix element file.
 Write ORTHOGONAL BASIS                    from file 10685 offset           0 length                 784 to matrix element file.
 Write DIPOLE INTEGRALS                    from file 10518 offset           0 length                1218 to matrix element file.
 Array DIP VEL INTEGRALS                    on  file 10572 does not exist.
 Array R X DEL INTEGRALS                    on  file 10572 does not exist.
 Write ALPHA ORBITAL ENERGIES              from file     0 offset           0 length                  28 to matrix element file.
 Write ALPHA MO COEFFICIENTS               from file 10524 offset           0 length                 784 to matrix element file.
 Write ALPHA DENSITY MATRIX                from file     0 offset           0 length                 406 to matrix element file.
 Write ALPHA SCF DENSITY MATRIX            from file 10528 offset           0 length                 406 to matrix element file.
 Write ALPHA FOCK MATRIX                   from file 10536 offset           0 length                 406 to matrix element file.
 Write ALPHA SCF DENSITY                   from file     0 offset           0 length                 406 to matrix element file.
 No 2e integrals to process.
 Perform NBO analysis...executing G16NBO...

 ------------------------------------------------------------------------------
   Energy of deletion :        -94.629103509
     Total SCF energy :        -94.681655867
                          -------------------
        Energy change :          0.052552 a.u.,          32.977 kcal/mol
 ------------------------------------------------------------------------------

 Opening RunExU unformatted file "/scr/ericg/reopt/Gau-7629.EUF"
 Read unf file /scr/ericg/reopt/Gau-7629.EUF:
 Label Gaussian matrix elements                                         IVers= 1 NLab= 2 Version=ES64L-G16RevB.01
 Title Methylamine...reoptimization with LEWIS deletions               
 NAtoms=     7 NBasis=    28 NBsUse=    28 ICharg=     0 Multip=     1 NE=    18 Len12L=8 Len4L=8 IOpCl= 0 ICGU= -1
 GAUSSIAN SCALARS                    NI= 1 NR= 1 NTot=       1 LenBuf=    2 NRI=1 N=    1000
 Recovered energy= -94.6291035093     dipole=     -0.547365544606      0.143538068621      0.000000000000

 NEF-NEF-NEF-NEF-NEF-NEF-NEF-NEF-NEF-NEF-NEF-NEF-NEF-NEF-NEF-NEF-NEF-NEF-
 NUMERICAL EIGENVECTOR FOLLOWING MINIMUM SEARCH
 NUMERICALLY ESTIMATING GRADIENTS
 ITERATION   0 VARIABLE  1 STEP  2

 NEF-NEF-NEF-NEF-NEF-NEF-NEF-NEF-NEF-NEF-NEF-NEF-NEF-NEF-NEF-NEF-NEF-NEF-
 ---------------------------------------------------------------------------------------------------
                            Z-MATRIX (ANGSTROMS AND DEGREES)
   CD    Cent   Atom    N1       Length/X        N2       Alpha/Y        N3        Beta/Z          J
 ---------------------------------------------------------------------------------------------------
      1      1  C 
      2      2  N        1   1.470858(     1)
      3      3  H        1   1.090100(     2)      2  114.766(     7)
      4      4  H        1   1.082500(     3)      2  108.947(     8)      3  121.422(    12)      0
      5      5  H        1   1.082500(     4)      2  108.947(     9)      3 -121.422(    13)      0
      6      6  H        2   1.003500(     5)      1  113.650(    10)      3   64.240(    14)      0
      7      7  H        2   1.003500(     6)      1  113.650(    11)      3  -64.240(    15)      0
 ---------------------------------------------------------------------------------------------------
                         Z-Matrix orientation:                         
 ---------------------------------------------------------------------
 Center     Atomic      Atomic             Coordinates (Angstroms)
 Number     Number       Type             X           Y           Z
 ---------------------------------------------------------------------
      1          6           0        0.000000    0.000000    0.000000
      2          7           0        0.000000    0.000000    1.470858
      3          1           0        0.989837    0.000000   -0.456663
      4          1           0       -0.533776   -0.873697   -0.351486
      5          1           0       -0.533776    0.873697   -0.351486
      6          1           0        0.399492    0.827875    1.873402
      7          1           0        0.399492   -0.827875    1.873402
 ---------------------------------------------------------------------
                    Distance matrix (angstroms):
                    1          2          3          4          5
     1  C    0.000000
     2  N    1.470858   0.000000
     3  H    1.090100   2.166821   0.000000
     4  H    1.082500   2.090263   1.759490   0.000000
     5  H    1.082500   2.090263   1.759490   1.747395   0.000000
     6  H    2.086769   1.003500   2.542260   2.952366   2.413134
     7  H    2.086769   1.003500   2.542260   2.413134   2.952366
                    6          7
     6  H    0.000000
     7  H    1.655749   0.000000
 Stoichiometry    CH5N
 Framework group  CS[SG(CHN),X(H4)]
 Deg. of freedom     9
 Full point group                 CS      NOp   2
 Largest Abelian subgroup         CS      NOp   2
 Largest concise Abelian subgroup CS      NOp   2
                         Standard orientation:                         
 ---------------------------------------------------------------------
 Center     Atomic      Atomic             Coordinates (Angstroms)
 Number     Number       Type             X           Y           Z
 ---------------------------------------------------------------------
      1          6           0        0.040070    0.715732    0.000000
      2          7           0        0.040070   -0.755126    0.000000
      3          1           0       -0.949767    1.172395    0.000000
      4          1           0        0.573847    1.067218    0.873697
      5          1           0        0.573847    1.067218   -0.873697
      6          1           0       -0.359422   -1.157670   -0.827875
      7          1           0       -0.359422   -1.157670    0.827875
 ---------------------------------------------------------------------
 Rotational constants (GHZ):         106.5238609          22.6125616          21.5555363
 Standard basis: 3-21G (6D, 7F)
 There are    20 symmetry adapted cartesian basis functions of A'  symmetry.
 There are     8 symmetry adapted cartesian basis functions of A"  symmetry.
 There are    20 symmetry adapted basis functions of A'  symmetry.
 There are     8 symmetry adapted basis functions of A"  symmetry.
    28 basis functions,    45 primitive gaussians,    28 cartesian basis functions
     9 alpha electrons        9 beta electrons
       nuclear repulsion energy        42.0061389223 Hartrees.
 NAtoms=    7 NActive=    7 NUniq=    5 SFac= 1.96D+00 NAtFMM=   60 NAOKFM=F Big=F
 Integral buffers will be    131072 words long.
 Raffenetti 1 integral format.
 Two-electron integral symmetry is turned on.
 One-electron integrals computed using PRISM.
 NBasis=    28 RedAO= T EigKep=  2.60D-02  NBF=    20     8
 NBsUse=    28 1.00D-06 EigRej= -1.00D+00 NBFU=    20     8
 Initial guess from the checkpoint file:  "/scr/ericg/reopt/Gau-7629.chk"
 B after Tr=     0.000000   -0.000000    0.000000
         Rot=    1.000000    0.000000    0.000000    0.000010 Ang=   0.00 deg.
 Initial guess orbital symmetries:
       Occupied  (A') (A') (A') (A') (A") (A') (A') (A") (A')
       Virtual   (A') (A') (A") (A') (A") (A') (A") (A') (A') (A')
                 (A") (A') (A') (A") (A') (A") (A') (A') (A')
 ExpMin= 1.83D-01 ExpMax= 2.43D+02 ExpMxC= 2.43D+02 IAcc=3 IRadAn=         5 AccDes= 0.00D+00
 Harris functional with IExCor=  205 and IRadAn=       5 diagonalized for initial guess.
 HarFok:  IExCor=  205 AccDes= 0.00D+00 IRadAn=         5 IDoV= 1 UseB2=F ITyADJ=14
 ICtDFT=  3500011 ScaDFX=  1.000000  1.000000  1.000000  1.000000
 FoFCou: FMM=F IPFlag=           0 FMFlag=      100000 FMFlg1=           0
         NFxFlg=           0 DoJE=T BraDBF=F KetDBF=T FulRan=T
         wScrn=  0.000000 ICntrl=       500 IOpCl=  0 I1Cent=   200000004 NGrid=           0
         NMat0=    1 NMatS0=      1 NMatT0=    0 NMatD0=    1 NMtDS0=    0 NMtDT0=    0
 Petite list used in FoFCou.
 Keep R1 ints in memory in symmetry-blocked form, NReq=892330.
 Requested convergence on RMS density matrix=1.00D-08 within 128 cycles.
 Requested convergence on MAX density matrix=1.00D-06.
 Requested convergence on             energy=1.00D-06.
 No special actions if energy rises.
 SCF Done:  E(RHF) =  -94.6816556562     A.U. after   10 cycles
            NFock= 10  Conv=0.63D-08     -V/T= 2.0023

 **********************************************************************

            Population analysis using the SCF Density.

 **********************************************************************

 Orbital symmetries:
       Occupied  (A') (A') (A') (A') (A") (A') (A') (A") (A')
       Virtual   (A') (A') (A") (A') (A") (A') (A") (A') (A') (A')
                 (A") (A') (A') (A") (A') (A") (A') (A') (A')
 The electronic state is 1-A'.
 Alpha  occ. eigenvalues --  -15.44141 -11.18047  -1.15494  -0.89641  -0.65850
 Alpha  occ. eigenvalues --   -0.59114  -0.55267  -0.51696  -0.36313
 Alpha virt. eigenvalues --    0.27434   0.32680   0.33694   0.36227   0.38907
 Alpha virt. eigenvalues --    0.45596   0.93458   0.98046   0.99093   1.26706
 Alpha virt. eigenvalues --    1.27994   1.32876   1.33529   1.38956   1.50777
 Alpha virt. eigenvalues --    1.65628   1.67242   1.96577   2.79897
          Condensed to atoms (all electrons):
               1          2          3          4          5          6
     1  C    5.093559   0.256704   0.360838   0.377717   0.377717  -0.044258
     2  N    0.256704   6.972660  -0.046330  -0.034800  -0.034800   0.338743
     3  H    0.360838  -0.046330   0.601660  -0.039212  -0.039212  -0.000944
     4  H    0.377717  -0.034800  -0.039212   0.512976  -0.024766   0.003501
     5  H    0.377717  -0.034800  -0.039212  -0.024766   0.512976  -0.002974
     6  H   -0.044258   0.338743  -0.000944   0.003501  -0.002974   0.444669
     7  H   -0.044258   0.338743  -0.000944  -0.002974   0.003501  -0.033576
               7
     1  C   -0.044258
     2  N    0.338743
     3  H   -0.000944
     4  H   -0.002974
     5  H    0.003501
     6  H   -0.033576
     7  H    0.444669
 Mulliken charges:
               1
     1  C   -0.378019
     2  N   -0.790919
     3  H    0.164143
     4  H    0.207558
     5  H    0.207558
     6  H    0.294840
     7  H    0.294840
 Sum of Mulliken charges =  -0.00000
 Mulliken charges with hydrogens summed into heavy atoms:
               1
     1  C    0.201240
     2  N   -0.201240
 Electronic spatial extent (au):  <R**2>=             95.1174
 Charge=             -0.0000 electrons
 Dipole moment (field-independent basis, Debye):
    X=             -1.3911    Y=              0.3636    Z=              0.0000  Tot=              1.4378
 Quadrupole moment (field-independent basis, Debye-Ang):
   XX=            -15.0012   YY=            -13.4771   ZZ=            -12.3503
   XY=              2.1656   XZ=              0.0000   YZ=              0.0000
 Traceless Quadrupole moment (field-independent basis, Debye-Ang):
   XX=             -1.3917   YY=              0.1324   ZZ=              1.2593
   XY=              2.1656   XZ=              0.0000   YZ=              0.0000
 Octapole moment (field-independent basis, Debye-Ang**2):
  XXX=             -1.2071  YYY=             -3.3099  ZZZ=             -0.0000  XYY=             -2.1853
  XXY=              0.0343  XXZ=             -0.0000  XZZ=             -0.3694  YZZ=             -2.3290
  YYZ=              0.0000  XYZ=              0.0000
 Hexadecapole moment (field-independent basis, Debye-Ang**3):
 XXXX=            -21.5674 YYYY=            -72.1942 ZZZZ=            -21.3983 XXXY=             -0.8683
 XXXZ=             -0.0000 YYYX=              1.5833 YYYZ=             -0.0000 ZZZX=             -0.0000
 ZZZY=              0.0000 XXYY=            -15.9516 XXZZ=             -6.9581 YYZZ=            -13.4951
 XXYZ=             -0.0000 YYXZ=              0.0000 ZZXY=              1.2785
 N-N= 4.200613892227D+01 E-N=-3.051262208737D+02  KE= 9.446187902236D+01
 Symmetry A'   KE= 8.994847523993D+01
 Symmetry A"   KE= 4.513403782432D+00
 Running external command "gaunbo6 R"
         input file       "/scr/ericg/reopt/Gau-7629.EIn"
         output file      "/scr/ericg/reopt/Gau-7629.EOu"
         message file     "/scr/ericg/reopt/Gau-7629.EMs"
         fchk file        "/scr/ericg/reopt/Gau-7629.EFC"
         mat. el file     "/scr/ericg/reopt/Gau-7629.EUF"

 Writing WrtUnf unformatted file "/scr/ericg/reopt/Gau-7629.EUF"
 Gaussian matrix elements                                         Version   2 NLab=11 Len12L=8 Len4L=8
 Write SHELL TO ATOM MAP                   from file     0 offset           0 length                  16 to matrix element file.
 Write SHELL TYPES                         from file     0 offset           0 length                  16 to matrix element file.
 Write NUMBER OF PRIMITIVES PER SHELL      from file     0 offset           0 length                  16 to matrix element file.
 Write PRIMITIVE EXPONENTS                 from file     0 offset           0 length                  27 to matrix element file.
 Write CONTRACTION COEFFICIENTS            from file     0 offset           0 length                  27 to matrix element file.
 Write P(S=P) CONTRACTION COEFFICIENTS     from file     0 offset           0 length                  27 to matrix element file.
 Write COORDINATES OF EACH SHELL           from file     0 offset           0 length                  48 to matrix element file.
 Write BONDS PER ATOM                      from file     0 offset           0 length                   7 to matrix element file.
 Write BONDED ATOMS                        from file     0 offset           0 length                  12 to matrix element file.
 Write BOND TYPES                          from file     0 offset           0 length                  12 to matrix element file.
 Write GAUSSIAN SCALARS                    from file   501 offset           0 to matrix element file.
 Write INTEGER ISO                         from file     0 offset           0 length                   7 to matrix element file.
 Write INTEGER SPIN                        from file     0 offset           0 length                   7 to matrix element file.
 Write REAL ZEFFECTIVE                     from file     0 offset           0 length                   7 to matrix element file.
 Write REAL QUADRUPOLEMOMENT               from file     0 offset           0 length                   7 to matrix element file.
 Write REAL GFACTOR                        from file     0 offset           0 length                   7 to matrix element file.
 Write REAL ZNUCLEAR                       from file     0 offset           0 length                   7 to matrix element file.
 Write MULLIKEN CHARGES                    from file     0 offset           0 length                   7 to matrix element file.
 Write NUCLEAR GRADIENT                    from file 10584 offset           0 length                  21 to matrix element file.
 Array NUCLEAR FORCE CONSTANTS              on  file 10585 does not exist.
 Write ELECTRIC DIPOLE MOMENT              from file     0 offset           0 length                   3 to matrix element file.
 Write NON-ADIABATIC COUPLING              from file 10810 offset           0 length                  21 to matrix element file.
 Write OVERLAP                             from file 10514 offset           0 length                 406 to matrix element file.
 Write CORE HAMILTONIAN ALPHA              from file 10515 offset           0 length                 406 to matrix element file.
 Write CORE HAMILTONIAN BETA               from file 10515 offset         406 length                 406 to matrix element file.
 Write KINETIC ENERGY                      from file 10516 offset           0 length                 406 to matrix element file.
 Write ORTHOGONAL BASIS                    from file 10685 offset           0 length                 784 to matrix element file.
 Write DIPOLE INTEGRALS                    from file 10518 offset           0 length                1218 to matrix element file.
 Array DIP VEL INTEGRALS                    on  file 10572 does not exist.
 Array R X DEL INTEGRALS                    on  file 10572 does not exist.
 Write ALPHA ORBITAL ENERGIES              from file     0 offset           0 length                  28 to matrix element file.
 Write ALPHA MO COEFFICIENTS               from file 10524 offset           0 length                 784 to matrix element file.
 Write ALPHA DENSITY MATRIX                from file     0 offset           0 length                 406 to matrix element file.
 Write ALPHA SCF DENSITY MATRIX            from file 10528 offset           0 length                 406 to matrix element file.
 Write ALPHA FOCK MATRIX                   from file 10536 offset           0 length                 406 to matrix element file.
 Write ALPHA SCF DENSITY                   from file     0 offset           0 length                 406 to matrix element file.
 No 2e integrals to process.
 Perform NBO analysis...executing G16NBO...


 NATURAL BOND ORBITALS (Summary):

                                                     Principal Delocalizations
           NBO                 Occupancy    Energy   (geminal,vicinal,remote)
 ===============================================================================
 Molecular unit  1  (CH5N)
 ------ Lewis --------------------------------------
    1. CR ( 1) C  1             1.99978   -11.17838  18(g)
    2. CR ( 1) N  2             1.99984   -15.42893  22(g)
    3. LP ( 1) N  2             1.97251    -0.40261  11(v),12(v),13(v)
    4. BD ( 1) C  1- N  2       1.99876    -0.80668
    5. BD ( 1) C  1- H  3       1.99851    -0.65496  20(v)
    6. BD ( 1) C  1- H  4       1.99368    -0.65291  14(v)
    7. BD ( 1) C  1- H  5       1.99368    -0.65291  15(v)
    8. BD ( 1) N  2- H  6       1.99538    -0.77269  12(v)
    9. BD ( 1) N  2- H  7       1.99538    -0.77269  13(v)
 ------ non-Lewis ----------------------------------
   10. BD*( 1) C  1- N  2       0.00009     0.57425
   11. BD*( 1) C  1- H  3       0.01975     0.69275
   12. BD*( 1) C  1- H  4       0.00728     0.71377
   13. BD*( 1) C  1- H  5       0.00728     0.71377
   14. BD*( 1) N  2- H  6       0.00442     0.70265
   15. BD*( 1) N  2- H  7       0.00442     0.70265
   16. RY ( 1) C  1             0.00090     0.98618
   17. RY ( 2) C  1             0.00052     1.01774
   18. RY ( 3) C  1             0.00014     1.86365
   19. RY ( 4) C  1             0.00001     1.06476
   20. RY ( 1) N  2             0.00132     1.49882
   21. RY ( 2) N  2             0.00044     1.61034
   22. RY ( 3) N  2             0.00030     2.29976
   23. RY ( 4) N  2             0.00001     1.98883
   24. RY ( 1) H  3             0.00171     0.94805
   25. RY ( 1) H  4             0.00087     0.94237
   26. RY ( 1) H  5             0.00087     0.94237
   27. RY ( 1) H  6             0.00108     0.97879
   28. RY ( 1) H  7             0.00108     0.97879
          -------------------------------
                 Total Lewis   17.94753  ( 99.7085%)
           Valence non-Lewis    0.04325  (  0.2403%)
           Rydberg non-Lewis    0.00923  (  0.0513%)
          -------------------------------
               Total unit  1   18.00000  (100.0000%)
              Charge unit  1    0.00000

 $CHOOSE
   LONE 2 1 END
   BOND S 1 2 S 1 3 S 1 4 S 1 5 S 2 6 S 2 7 END
 $END
[...]
 !       CHa         1.0877   -DE/DX =    0.0                           !
 !       CHb         1.0856   -DE/DX =    0.0                           !
 !       NH          1.0068   -DE/DX =    0.0                           !
 !      NCHa       106.9669   -DE/DX =    0.0                           !
 !      NCHb       107.077    -DE/DX =    0.0                           !
 !       CNH       109.7482   -DE/DX =    0.0                           !
 !      alfa       120.2701   -DE/DX =    0.0                           !
 !      beta        61.0413   -DE/DX =    0.0                           !
 ------------------------------------------------------------------------
 PREDICTED CHANGE IN ENERGY  -0.000000

 NEF-NEF-NEF-NEF-NEF-NEF-NEF-NEF-NEF-NEF-NEF-NEF-NEF-NEF-NEF-NEF-NEF-NEF-
 ---------------------------------------------------------------------------------------------------
                            Z-MATRIX (ANGSTROMS AND DEGREES)
   CD    Cent   Atom    N1       Length/X        N2       Alpha/Y        N3        Beta/Z          J
 ---------------------------------------------------------------------------------------------------
      1      1  C 
      2      2  N        1   1.589917(     1)
      3      3  H        1   1.087724(     2)      2  106.967(     7)
      4      4  H        1   1.085583(     3)      2  107.077(     8)      3  120.270(    12)      0
      5      5  H        1   1.085583(     4)      2  107.077(     9)      3 -120.270(    13)      0
      6      6  H        2   1.006759(     5)      1  109.748(    10)      3   61.041(    14)      0
      7      7  H        2   1.006759(     6)      1  109.748(    11)      3  -61.041(    15)      0
 ---------------------------------------------------------------------------------------------------
                         Z-Matrix orientation:                         
 ---------------------------------------------------------------------
 Center     Atomic      Atomic             Coordinates (Angstroms)
 Number     Number       Type             X           Y           Z
 ---------------------------------------------------------------------
      1          6           0        0.000000    0.000000    0.000000
      2          7           0        0.000000    0.000000    1.589917
      3          1           0        1.040379    0.000000   -0.317418
      4          1           0       -0.523091   -0.896237   -0.318789
      5          1           0       -0.523091    0.896237   -0.318789
      6          1           0        0.458783    0.829075    1.930088
      7          1           0        0.458783   -0.829075    1.930088
 ---------------------------------------------------------------------
                    Distance matrix (angstroms):
                    1          2          3          4          5
     1  C    0.000000
     2  N    1.589917   0.000000
     3  H    1.087724   2.172629   0.000000
     4  H    1.085583   2.172561   1.802132   0.000000
     5  H    1.085583   2.172561   1.802132   1.792473   0.000000
     6  H    2.150136   1.006759   2.465137   2.999704   2.454798
     7  H    2.150136   1.006759   2.465137   2.454798   2.999704
                    6          7
     6  H    0.000000
     7  H    1.658150   0.000000
 Stoichiometry    CH5N
 Framework group  CS[SG(CHN),X(H4)]
 Deg. of freedom     9
 Full point group                 CS      NOp   2
 Largest Abelian subgroup         CS      NOp   2
 Largest concise Abelian subgroup CS      NOp   2
                         Standard orientation:                         
 ---------------------------------------------------------------------
 Center     Atomic      Atomic             Coordinates (Angstroms)
 Number     Number       Type             X           Y           Z
 ---------------------------------------------------------------------
      1          6           0        0.050654    0.779700   -0.000000
      2          7           0        0.050654   -0.810217    0.000000
      3          1           0       -0.989726    1.097118   -0.000000
      4          1           0        0.573744    1.098489    0.896237
      5          1           0        0.573744    1.098489   -0.896237
      6          1           0       -0.408130   -1.150388   -0.829075
      7          1           0       -0.408130   -1.150388    0.829075
 ---------------------------------------------------------------------
 Rotational constants (GHZ):         101.2439574          20.3713339          19.5688228

 **********************************************************************

            Population analysis using the SCF Density.

 **********************************************************************

 Orbital symmetries:
       Occupied  (A') (A') (A') (A') (A") (A') (A") (A') (A')
       Virtual   (A') (A') (A") (A') (A") (A') (A") (A') (A') (A')
                 (A") (A') (A') (A") (A') (A") (A') (A') (A')
 The electronic state is 1-A'.
 Alpha  occ. eigenvalues --  -15.42199 -11.19443  -1.12147  -0.89744  -0.63811
 Alpha  occ. eigenvalues --   -0.58387  -0.53313  -0.51696  -0.36163
 Alpha virt. eigenvalues --    0.26435   0.32210   0.34455   0.35153   0.38490
 Alpha virt. eigenvalues --    0.40190   0.92891   0.96599   0.96996   1.25796
 Alpha virt. eigenvalues --    1.27942   1.31238   1.33948   1.37668   1.51179
 Alpha virt. eigenvalues --    1.65160   1.68711   1.96962   2.78580
          Condensed to atoms (all electrons):
               1          2          3          4          5          6
     1  C    5.155795   0.244180   0.365491   0.375017   0.375017  -0.041334
     2  N    0.244180   6.900489  -0.033772  -0.023642  -0.023642   0.335679
     3  H    0.365491  -0.033772   0.545559  -0.029535  -0.029535   0.000071
     4  H    0.375017  -0.023642  -0.029535   0.487633  -0.024558   0.002083
     5  H    0.375017  -0.023642  -0.029535  -0.024558   0.487633  -0.001348
     6  H   -0.041334   0.335679   0.000071   0.002083  -0.001348   0.459622
     7  H   -0.041334   0.335679   0.000071  -0.001348   0.002083  -0.033499
               7
     1  C   -0.041334
     2  N    0.335679
     3  H    0.000071
     4  H   -0.001348
     5  H    0.002083
     6  H   -0.033499
     7  H    0.459622
 Mulliken charges:
               1
     1  C   -0.432831
     2  N   -0.734971
     3  H    0.181651
     4  H    0.214350
     5  H    0.214350
     6  H    0.278725
     7  H    0.278725
 Sum of Mulliken charges =  -0.00000
 Mulliken charges with hydrogens summed into heavy atoms:
               1
     1  C    0.177521
     2  N   -0.177521
 Electronic spatial extent (au):  <R**2>=            100.1313
 Charge=             -0.0000 electrons
 Dipole moment (field-independent basis, Debye):
    X=             -1.6286    Y=              0.7572    Z=             -0.0000  Tot=              1.7960
 Quadrupole moment (field-independent basis, Debye-Ang):
   XX=            -14.7276   YY=            -13.9985   ZZ=            -12.3290
   XY=              2.4018   XZ=             -0.0000   YZ=             -0.0000
 Traceless Quadrupole moment (field-independent basis, Debye-Ang):
   XX=             -1.0425   YY=             -0.3135   ZZ=              1.3560
   XY=              2.4018   XZ=             -0.0000   YZ=             -0.0000
 Octapole moment (field-independent basis, Debye-Ang**2):
  XXX=             -1.6720  YYY=             -2.5930  ZZZ=             -0.0000  XYY=             -2.5013
  XXY=              0.3503  XXZ=             -0.0000  XZZ=             -0.3255  YZZ=             -1.8895
  YYZ=             -0.0000  XYZ=             -0.0000
 Hexadecapole moment (field-independent basis, Debye-Ang**3):
 XXXX=            -21.4619 YYYY=            -79.9188 ZZZZ=            -21.5122 XXXY=             -1.3224
 XXXZ=              0.0000 YYYX=              1.7393 YYYZ=              0.0000 ZZZX=             -0.0000
 ZZZY=             -0.0000 XXYY=            -16.8200 XXZZ=             -6.9025 YYZZ=            -14.4635
 XXYZ=              0.0000 YYXZ=              0.0000 ZZXY=              1.4048
 N-N= 4.058951007983D+01 E-N=-3.021181640525D+02  KE= 9.424628265874D+01
 Symmetry A'   KE= 8.976068102353D+01
 Symmetry A"   KE= 4.485601635207D+00
 Running external command "gaunbo6 R"
         input file       "/scr/ericg/reopt/Gau-7629.EIn"
         output file      "/scr/ericg/reopt/Gau-7629.EOu"
         message file     "/scr/ericg/reopt/Gau-7629.EMs"
         fchk file        "/scr/ericg/reopt/Gau-7629.EFC"
         mat. el file     "/scr/ericg/reopt/Gau-7629.EUF"
 Coordinates do not match /B/: Transferring coordinates from /Mol/ to /B/.

 Writing WrtUnf unformatted file "/scr/ericg/reopt/Gau-7629.EUF"
 Gaussian matrix elements                                         Version   2 NLab=11 Len12L=8 Len4L=8
 Write SHELL TO ATOM MAP                   from file     0 offset           0 length                  16 to matrix element file.
 Write SHELL TYPES                         from file     0 offset           0 length                  16 to matrix element file.
 Write NUMBER OF PRIMITIVES PER SHELL      from file     0 offset           0 length                  16 to matrix element file.
 Write PRIMITIVE EXPONENTS                 from file     0 offset           0 length                  27 to matrix element file.
 Write CONTRACTION COEFFICIENTS            from file     0 offset           0 length                  27 to matrix element file.
 Write P(S=P) CONTRACTION COEFFICIENTS     from file     0 offset           0 length                  27 to matrix element file.
 Write COORDINATES OF EACH SHELL           from file     0 offset           0 length                  48 to matrix element file.
 Write BONDS PER ATOM                      from file     0 offset           0 length                   7 to matrix element file.
 Write BONDED ATOMS                        from file     0 offset           0 length                  12 to matrix element file.
 Write BOND TYPES                          from file     0 offset           0 length                  12 to matrix element file.
 Write GAUSSIAN SCALARS                    from file   501 offset           0 to matrix element file.
 Write INTEGER ISO                         from file     0 offset           0 length                   7 to matrix element file.
 Write INTEGER SPIN                        from file     0 offset           0 length                   7 to matrix element file.
 Write REAL ZEFFECTIVE                     from file     0 offset           0 length                   7 to matrix element file.
 Write REAL QUADRUPOLEMOMENT               from file     0 offset           0 length                   7 to matrix element file.
 Write REAL GFACTOR                        from file     0 offset           0 length                   7 to matrix element file.
 Write REAL ZNUCLEAR                       from file     0 offset           0 length                   7 to matrix element file.
 Write MULLIKEN CHARGES                    from file     0 offset           0 length                   7 to matrix element file.
 Write NUCLEAR GRADIENT                    from file 10584 offset           0 length                  21 to matrix element file.
 Array NUCLEAR FORCE CONSTANTS              on  file 10585 does not exist.
 Write ELECTRIC DIPOLE MOMENT              from file     0 offset           0 length                   3 to matrix element file.
 Write NON-ADIABATIC COUPLING              from file 10810 offset           0 length                  21 to matrix element file.
 Write OVERLAP                             from file 10514 offset           0 length                 406 to matrix element file.
 Write CORE HAMILTONIAN ALPHA              from file 10515 offset           0 length                 406 to matrix element file.
 Write CORE HAMILTONIAN BETA               from file 10515 offset         406 length                 406 to matrix element file.
 Write KINETIC ENERGY                      from file 10516 offset           0 length                 406 to matrix element file.
 Write ORTHOGONAL BASIS                    from file 10685 offset           0 length                 784 to matrix element file.
 Write DIPOLE INTEGRALS                    from file 10518 offset           0 length                1218 to matrix element file.
 Array DIP VEL INTEGRALS                    on  file 10572 does not exist.
 Array R X DEL INTEGRALS                    on  file 10572 does not exist.
 Write ALPHA ORBITAL ENERGIES              from file     0 offset           0 length                  28 to matrix element file.
 Write ALPHA MO COEFFICIENTS               from file 10524 offset           0 length                 784 to matrix element file.
 Write ALPHA DENSITY MATRIX                from file     0 offset           0 length                 406 to matrix element file.
 Write ALPHA SCF DENSITY MATRIX            from file 10528 offset           0 length                 406 to matrix element file.
 Write ALPHA FOCK MATRIX                   from file 10536 offset           0 length                 406 to matrix element file.
 Write ALPHA SCF DENSITY                   from file     0 offset           0 length                 406 to matrix element file.
 No 2e integrals to process.
 Perform NBO analysis...executing G16NBO...

 Basis functions are not in expected form; all options requiring function
 coefficients and exponents (BEND, NJC, NBCP, and PLOT/AOINFO) are disabled


 NATURAL BOND ORBITALS (Summary):

                                                     Principal Delocalizations
           NBO                 Occupancy    Energy   (geminal,vicinal,remote)
 ===============================================================================
 Molecular unit  1  (CH5N)
 ------ Lewis --------------------------------------
    1. CR ( 1) C  1             1.99979   -11.19180
    2. CR ( 1) N  2             1.99985   -15.40719
    3. LP ( 1) N  2             1.99324    -0.41328  11(v),12(v),13(v)
    4. BD ( 1) C  1- N  2       1.99892    -0.70656
    5. BD ( 1) C  1- H  3       1.99915    -0.67200
    6. BD ( 1) C  1- H  4       1.99757    -0.66613  14(v)
    7. BD ( 1) C  1- H  5       1.99757    -0.66613  15(v)
    8. BD ( 1) N  2- H  6       1.99784    -0.76605  12(v)
    9. BD ( 1) N  2- H  7       1.99784    -0.76605  13(v)
 ------ non-Lewis ----------------------------------
   10. BD*( 1) C  1- N  2       0.00029     0.44969
   11. BD*( 1) C  1- H  3       0.00485     0.68643
   12. BD*( 1) C  1- H  4       0.00263     0.70037
   13. BD*( 1) C  1- H  5       0.00263     0.70037
   14. BD*( 1) N  2- H  6       0.00160     0.70111
   15. BD*( 1) N  2- H  7       0.00160     0.70111
   16. RY ( 1) C  1             0.00041     1.10798
   17. RY ( 2) C  1             0.00021     1.75383
   18. RY ( 3) C  1             0.00017     1.01334
   19. RY ( 4) C  1             0.00001     1.09122
   20. RY ( 1) N  2             0.00061     1.50486
   21. RY ( 2) N  2             0.00038     2.16627
   22. RY ( 3) N  2             0.00028     1.59984
   23. RY ( 4) N  2             0.00001     2.13128
   24. RY ( 1) H  3             0.00055     0.93289
   25. RY ( 1) H  4             0.00037     0.93423
   26. RY ( 1) H  5             0.00037     0.93423
   27. RY ( 1) H  6             0.00064     0.99157
   28. RY ( 1) H  7             0.00064     0.99157
          -------------------------------
                 Total Lewis   17.98176  ( 99.8987%)
           Valence non-Lewis    0.01360  (  0.0755%)
           Rydberg non-Lewis    0.00465  (  0.0258%)
          -------------------------------
               Total unit  1   18.00000  (100.0000%)
              Charge unit  1    0.00000

 $CHOOSE
   LONE 2 1 END
   BOND S 1 2 S 1 3 S 1 4 S 1 5 S 2 6 S 2 7 END
 $END
 Maximum scratch memory used by G16NBO was 9478 words (0.07 MB)


 LEWIS: Delete all non-Lewis NBOs
 Deletion of the following orbitals from the NBO Fock matrix:
   10  11  12  13  14  15  16  17  18  19  20  21  22  23  24  25  26  27  28

 Orbital occupancies:

       Orbital                         No deletions  This deletion    Change
 ------------------------------------------------------------------------------
    1. CR ( 1) C  1                      1.99979        2.00000       0.00021
    2. CR ( 1) N  2                      1.99985        2.00000       0.00015
    3. LP ( 1) N  2                      1.99324        2.00000       0.00676
    4. BD ( 1) C  1- N  2                1.99892        2.00000       0.00108
    5. BD ( 1) C  1- H  3                1.99915        2.00000       0.00085
    6. BD ( 1) C  1- H  4                1.99757        2.00000       0.00243
    7. BD ( 1) C  1- H  5                1.99757        2.00000       0.00243
    8. BD ( 1) N  2- H  6                1.99784        2.00000       0.00216
    9. BD ( 1) N  2- H  7                1.99784        2.00000       0.00216
   10. BD*( 1) C  1- N  2                0.00029        0.00000      -0.00029
   11. BD*( 1) C  1- H  3                0.00485        0.00000      -0.00485
   12. BD*( 1) C  1- H  4                0.00263        0.00000      -0.00263
   13. BD*( 1) C  1- H  5                0.00263        0.00000      -0.00263
   14. BD*( 1) N  2- H  6                0.00160        0.00000      -0.00160
   15. BD*( 1) N  2- H  7                0.00160        0.00000      -0.00160
   16. RY ( 1) C  1                      0.00041        0.00000      -0.00041
   17. RY ( 2) C  1                      0.00021        0.00000      -0.00021
   18. RY ( 3) C  1                      0.00017        0.00000      -0.00017
   19. RY ( 4) C  1                      0.00001        0.00000      -0.00001
   20. RY ( 1) N  2                      0.00061        0.00000      -0.00061
   21. RY ( 2) N  2                      0.00038        0.00000      -0.00038
   22. RY ( 3) N  2                      0.00028        0.00000      -0.00028
   23. RY ( 4) N  2                      0.00001        0.00000      -0.00001
   24. RY ( 1) H  3                      0.00055        0.00000      -0.00055
   25. RY ( 1) H  4                      0.00037        0.00000      -0.00037
   26. RY ( 1) H  5                      0.00037        0.00000      -0.00037
   27. RY ( 1) H  6                      0.00064        0.00000      -0.00064
   28. RY ( 1) H  7                      0.00064        0.00000      -0.00064

 NEXT STEP:  Perform one SCF cycle to evaluate the energy of the new density
             matrix constructed from the deleted NBO Fock matrix.

 ------------------------------------------------------------------------------
 Opening RunExU unformatted file "/scr/ericg/reopt/Gau-7629.EUF"
 Read unf file /scr/ericg/reopt/Gau-7629.EUF:
 Label Gaussian matrix elements                                         IVers= 1 NLab= 2 Version=ES64L-G16RevB.01
 Title Methylamine...reoptimization with LEWIS deletions               
 NAtoms=     7 NBasis=    28 NBsUse=    28 ICharg=     0 Multip=     1 NE=    18 Len12L=8 Len4L=8 IOpCl= 0 ICGU= -1
 GAUSSIAN SCALARS                    NI= 1 NR= 1 NTot=       1 LenBuf=    2 NRI=1 N=    1000
 ALPHA DENSITY MATRIX                NI= 0 NR= 1 NTot=     406 LenBuf= 4000 NRI=1 N=     -28      28
 Store file  10528 Len=     406.
 ALPHA MO COEFFICIENTS               NI= 0 NR= 1 NTot=     784 LenBuf= 4000 NRI=1 N=      28      28
 Store file  10524 Len=     784.
 NPA CHARGES                         NI= 0 NR= 1 NTot=       7 LenBuf= 4000 NRI=1 N=       7
 Recovered energy= -94.6406780864     dipole=     -0.640744766698      0.297904761047     -0.000000000000

 This type of calculation cannot be archived.


 ALL SCIENCE IS EITHER PHYSICS, OR STAMP COLLECTING.
   --ERNEST RUTHERFORD, 1871-1937.
 Job cpu time:       0 days  0 hours  6 minutes 36.9 seconds.
 Elapsed time:       0 days  0 hours  1 minutes 44.5 seconds.
 File lengths (MBytes):  RWF=      6 Int=      0 D2E=      0 Chk=      1 Scr=      1
 Normal termination of Gaussian 16 at Mon May 18 16:38:07 2020.
