----- GAMESS execution script 'rungms' -----
This job is running on host neutron
under operating system Linux at Thu Apr 18 13:44:19 EDT 2019
Available scratch disk space (Kbyte units) at beginning of the job is
Filesystem     1K-blocks      Used Available Use% Mounted on
/dev/sda2      236432240 131178696  93173776  59% /
GAMESS temporary binary files will be written to /home/ericg/scr
GAMESS supplementary output files will be written to /home/ericg/scr
Copying input file b.11.3.4a.inp to your run's scratch directory...
cp -i b.11.3.4a.inp /home/ericg/scr/b.11.3.4a.F05
unset echo
/opt/gamess/ddikick.x /opt/gamess/gamess.00.x b.11.3.4a -ddi 1 1 neutron -scr /home/ericg/scr

 Distributed Data Interface kickoff program.
 Initiating 1 compute processes on 1 nodes to run the following command:
 /opt/gamess/gamess.00.x b.11.3.4a 

          ******************************************************
          *         GAMESS VERSION = 30 SEP 2018 (R3)         *
          *             FROM IOWA STATE UNIVERSITY             *
          * M.W.SCHMIDT, K.K.BALDRIDGE, J.A.BOATZ, S.T.ELBERT, *
          *   M.S.GORDON, J.H.JENSEN, S.KOSEKI, N.MATSUNAGA,   *
          *          K.A.NGUYEN, S.J.SU, T.L.WINDUS,           *
          *       TOGETHER WITH M.DUPUIS, J.A.MONTGOMERY       *
          *         J.COMPUT.CHEM.  14, 1347-1363(1993)        *
          **************** 64 BIT LINUX VERSION ****************

  SINCE 1993, STUDENTS AND POSTDOCS WORKING AT IOWA STATE UNIVERSITY
  AND ALSO IN THEIR VARIOUS JOBS AFTER LEAVING ISU HAVE MADE IMPORTANT
  CONTRIBUTIONS TO THE CODE:
     IVANA ADAMOVIC, CHRISTINE AIKENS, YURI ALEXEEV, POOJA ARORA,
     ANDREY ASADCHEV, ROB BELL, PRADIPTA BANDYOPADHYAY, JONATHAN BENTZ,
     BRETT BODE, KURT BRORSEN, CALEB CARLIN, GALINA CHABAN, WEI CHEN,
     CHEOL HO CHOI, PAUL DAY, ALBERT DEFUSCO, NUWAN DESILVA, TIM DUDLEY,
     DMITRI FEDOROV, ALEX FINDLATER, GRAHAM FLETCHER, MARK FREITAG,
     KURT GLAESEMANN, ANASTASIA GUNINA,
     DAN KEMP, GRANT MERRILL, NORIYUKI MINEZAWA, JONATHAN MULLIN,
     TAKESHI NAGATA, SEAN NEDD, HEATHER NETZLOFF, BOSILJKA NJEGIC, RYAN OLSON,
     MIKE PAK, BUU PHAM,
     SPENCER PRUITT, LUKE ROSKOP, JIM SHOEMAKER, LYUDMILA SLIPCHENKO,
     TONY SMITH, SAROM SOK LEANG, JIE SONG, TETSUYA TAKETSUGU, SIMON WEBB,
     PENG XU, SOOHAENG YOO, FEDERICO ZAHARIEV

  ADDITIONAL CODE HAS BEEN PROVIDED BY COLLABORATORS IN OTHER GROUPS:
     IOWA STATE UNIVERSITY:
          JOE IVANIC, AARON WEST, LAIMUTIS BYTAUTAS, KLAUS RUEDENBERG
     UNIVERSITY OF TOKYO: KIMIHIKO HIRAO, TAKAHITO NAKAJIMA,
          TAKAO TSUNEDA, MUNEAKI KAMIYA, SUSUMU YANAGISAWA,
          KIYOSHI YAGI, MAHITO CHIBA, SEIKEN TOKURA, NAOAKI KAWAKAMI
     UNIVERSITY OF AARHUS: FRANK JENSEN
     UNIVERSITY OF IOWA: VISVALDAS KAIRYS, HUI LI
     NATIONAL INST. OF STANDARDS AND TECHNOLOGY: WALT STEVENS, DAVID GARMER
     UNIVERSITY OF PISA: BENEDETTA MENNUCCI, JACOPO TOMASI
     UNIVERSITY OF MEMPHIS: HENRY KURTZ, PRAKASHAN KORAMBATH
     UNIVERSITY OF ALBERTA: TOBY ZENG, MARIUSZ KLOBUKOWSKI
     UNIVERSITY OF NEW ENGLAND: MARK SPACKMAN
     MIE UNIVERSITY: HIROAKI UMEDA
     NAT. INST. OF ADVANCED INDUSTRIAL SCIENCE AND TECHNOLOGY: KAZUO KITAURA
     MICHIGAN STATE UNIVERSITY:
          KAROL KOWALSKI, MARTA WLOCH, JEFFREY GOUR, JESSE LUTZ,
          WEI LI, JUN SHEN, J. EMILIANO DEUSTUA, PIOTR PIECUCH
     UNIVERSITY OF MINNESOTA:
          YINAN SHU
     UNIVERSITY OF SILESIA: MONIKA MUSIAL, STANISLAW KUCHARSKI
     FACULTES UNIVERSITAIRES NOTRE-DAME DE LA PAIX:
          OLIVIER QUINET, BENOIT CHAMPAGNE
     UNIVERSITY OF CALIFORNIA - SANTA BARBARA: BERNARD KIRTMAN
     INSTITUTE FOR MOLECULAR SCIENCE:
          KAZUYA ISHIMURA, MICHIO KATOUDA, AND SHIGERU NAGASE
     UNIVERSITY OF NOTRE DAME: ANNA POMOGAEVA, DAN CHIPMAN
     KYUSHU UNIVERSITY:
          HARUYUKI NAKANO,
          FENG LONG GU, JACEK KORCHOWIEC, MARCIN MAKOWSKI, AND YURIKO AOKI,
          HIROTOSHI MORI AND EISAKU MIYOSHI
     PENNSYLVANIA STATE UNIVERSITY:
          TZVETELIN IORDANOV, CHET SWALINA, JONATHAN SKONE,
          SHARON HAMMES-SCHIFFER
     WASEDA UNIVERSITY:
          MASATO KOBAYASHI, TOMOKO AKAMA, TSUGUKI TOUMA,
          TAKESHI YOSHIKAWA, YASUHIRO IKABATA, JUNJI SEINO,
          YUYA NAKAJIMA, HIROMI NAKAI
     NANJING UNIVERSITY: SHUHUA LI
     UNIVERSITY OF NEBRASKA:
          PEIFENG SU, DEJUN SI, NANDUN THELLAMUREGE, YALI WANG, HUI LI
     UNIVERSITY OF ZURICH: ROBERTO PEVERATI, KIM BALDRIDGE
     N. COPERNICUS UNIVERSITY AND JACKSON STATE UNIVERSITY:
          MARIA BARYSZ
     UNIVERSITY OF COPENHAGEN: Jimmy Kromann, CASPER STEINMANN
     TOKYO INSTITUTE OF TECHNOLOGY: HIROYA NAKATA
     NAGOYA UNIVERSITY: YOSHIO NISHIMOTO, STEPHAN IRLE
     MOSCOW STATE UNIVERSITY: VLADIMIR MIRONOV

 EXECUTION OF GAMESS BEGUN Thu Apr 18 13:44:19 2019

            ECHO OF THE FIRST FEW INPUT CARDS -
 INPUT CARD> $contrl  dfttyp=b3lyp  scftyp=rhf  runtyp=energy  nosym=1  ispher=1            
 INPUT CARD>    $end                                                                        
 INPUT CARD> $system  mwords=100  $end                                                      
 INPUT CARD> $basis  gbasis=acct  $end                                                      
 INPUT CARD> $nbo  $end                                                                     
 INPUT CARD> $del  neda end  $end                                                           
 INPUT CARD> $data                                                                          
 INPUT CARD>C3 water trimer...b3lyp/avtz                                                    
 INPUT CARD>Cn 3                                                                            
 INPUT CARD>                                                                                
 INPUT CARD>Oxygen     8.    -0.957406    1.304375   -0.091870                              
 INPUT CARD>Hydrogen   1.     0.014172    1.244266   -0.037940                              
 INPUT CARD>Hydrogen   1.    -1.225393    1.975012    0.541376                              
 INPUT CARD> $end                                                                           
  100000000 WORDS OF MEMORY AVAILABLE

     BASIS OPTIONS
     -------------
     GBASIS=ACCT         IGAUSS=       0      POLAR=NONE    
     NDFUNC=       0     NFFUNC=       0     DIFFSP=       F
     NPFUNC=       0      DIFFS=       F     BASNAM=        


     RUN TITLE
     ---------
 C3 water trimer...b3lyp/avtz                                                    

 THE POINT GROUP OF THE MOLECULE IS CN      
 THE ORDER OF THE PRINCIPAL AXIS IS     3

 ATOM      ATOMIC                      COORDINATES (BOHR)
           CHARGE         X                   Y                   Z
 OXYGEN      8.0    -1.2300583349       -2.7992991382       -0.1736091265
 OXYGEN      8.0     3.0392933339        0.3343878029       -0.1736091265
 OXYGEN      8.0    -1.8092349990        2.4649113352       -0.1736091265
 HYDROGEN    1.0    -2.0496950060       -1.1524677012       -0.0716962040
 HYDROGEN    1.0     2.0229138093       -1.1988540946       -0.0716962040
 HYDROGEN    1.0     0.0267811967        2.3513217958       -0.0716962040
 HYDROGEN    1.0    -2.0743787953       -3.8715335373        1.0230522963
 HYDROGEN    1.0     4.3900357926        0.1393020349        1.0230522963
 HYDROGEN    1.0    -2.3156569973        3.7322315025        1.0230522963

          INTERNUCLEAR DISTANCES (ANGS.)
          ------------------------------

                1 OXYG       2 OXYG       3 OXYG       4 HYDR       5 HYDR  

   1 OXYG    0.0000000    2.8025098 *  2.8025098 *  0.9749284 *  1.9192171 *
   2 OXYG    2.8025098 *  0.0000000    2.8025098 *  2.8060832 *  0.9749284 *
   3 OXYG    2.8025098 *  2.8025098 *  0.0000000    1.9192171 *  2.8060832 *
   4 HYDR    0.9749284 *  2.8060832 *  1.9192171 *  0.0000000    2.1552717 *
   5 HYDR    1.9192171 *  0.9749284 *  2.8060832 *  2.1552717 *  0.0000000  
   6 HYDR    2.8060832 *  1.9192171 *  0.9749284 *  2.1552717 *  2.1552717 *
   7 HYDR    0.9605059 *  3.5605181    3.4152574    1.5511667 *  2.6527300 *
   8 HYDR    3.4152574    0.9605059 *  3.5605181    3.5235924    1.5511667 *
   9 HYDR    3.5605181    3.4152574    0.9605059 *  2.6527300 *  3.5235924  

                6 HYDR       7 HYDR       8 HYDR       9 HYDR  

   1 OXYG    2.8060832 *  0.9605059 *  3.4152574    3.5605181  
   2 OXYG    1.9192171 *  3.5605181    0.9605059 *  3.4152574  
   3 OXYG    0.9749284 *  3.4152574    3.5605181    0.9605059 *
   4 HYDR    2.1552717 *  1.5511667 *  3.5235924    2.6527300 *
   5 HYDR    2.1552717 *  2.6527300 *  1.5511667 *  3.5235924  
   6 HYDR    0.0000000    3.5235924    2.6527300 *  1.5511667 *
   7 HYDR    3.5235924    0.0000000    4.0257647    4.0257647  
   8 HYDR    2.6527300 *  4.0257647    0.0000000    4.0257647  
   9 HYDR    1.5511667 *  4.0257647    4.0257647    0.0000000  

  * ... LESS THAN  3.000


     ATOMIC BASIS SET
     ----------------
 THE CONTRACTED PRIMITIVE FUNCTIONS HAVE BEEN UNNORMALIZED
 THE CONTRACTED BASIS FUNCTIONS ARE NOW NORMALIZED TO UNITY

  SHELL TYPE  PRIMITIVE        EXPONENT          CONTRACTION COEFFICIENT(S)

 OXYGEN    

     29   S       1         15330.0000000    0.000520198307
     29   S       2          2299.0000000    0.004023344781
     29   S       3           522.4000000    0.020729083329
     29   S       4           147.3000000    0.081082327080
     29   S       5            47.5500000    0.236226352118
     29   S       6            16.7600000    0.443518209420
     29   S       7             6.2070000    0.358670588689
     29   S       8             0.6882000   -0.008349797237

     30   S       9         15330.0000000   -0.000197236012
     30   S      10          2299.0000000   -0.001535010700
     30   S      11           522.4000000   -0.007951183914
     30   S      12           147.3000000   -0.032113452892
     30   S      13            47.5500000   -0.100269643049
     30   S      14            16.7600000   -0.234047111838
     30   S      15             6.2070000   -0.301410927756
     30   S      16             0.6882000    1.034919649508

     31   S      17             1.7520000    1.000000000000

     32   S      18             0.2384000    1.000000000000

     33   P      19            34.4600000    0.041163489568
     33   P      20             7.7490000    0.257762835858
     33   P      21             2.2800000    0.802419274427

     34   P      22             0.7156000    1.000000000000

     35   P      23             0.2140000    1.000000000000

     36   D      24             2.3140000    1.000000000000

     37   D      25             0.6450000    1.000000000000

     38   F      26             1.4280000    1.000000000000

     39   S      27             0.0737600    1.000000000000

     40   P      28             0.0597400    1.000000000000

     41   D      29             0.2140000    1.000000000000

     42   F      30             0.5000000    1.000000000000

 HYDROGEN  

     61   S      31            33.8700000    0.025494863235
     61   S      32             5.0950000    0.190362765893
     61   S      33             1.1590000    0.852162022245

     62   S      34             0.3258000    1.000000000000

     63   S      35             0.1027000    1.000000000000

     64   P      36             1.4070000    1.000000000000

     65   P      37             0.3880000    1.000000000000

     66   D      38             1.0570000    1.000000000000

     67   S      39             0.0252600    1.000000000000

     68   P      40             0.1020000    1.000000000000

     69   D      41             0.2470000    1.000000000000

 HYDROGEN  

     88   S      42            33.8700000    0.025494863235
     88   S      43             5.0950000    0.190362765893
     88   S      44             1.1590000    0.852162022245

     89   S      45             0.3258000    1.000000000000

     90   S      46             0.1027000    1.000000000000

     91   P      47             1.4070000    1.000000000000

     92   P      48             0.3880000    1.000000000000

     93   D      49             1.0570000    1.000000000000

     94   S      50             0.0252600    1.000000000000

     95   P      51             0.1020000    1.000000000000

     96   D      52             0.2470000    1.000000000000

 TOTAL NUMBER OF BASIS SET SHELLS             =   96
 NUMBER OF CARTESIAN GAUSSIAN BASIS FUNCTIONS =  315
 NOTE: THIS RUN WILL RESTRICT THE MO VARIATION SPACE TO SPHERICAL HARMONICS.
 THE NUMBER OF ORBITALS KEPT IN THE VARIATIONAL SPACE WILL BE PRINTED LATER.
 NUMBER OF ELECTRONS                          =   30
 CHARGE OF MOLECULE                           =    0
 SPIN MULTIPLICITY                            =    1
 NUMBER OF OCCUPIED ORBITALS (ALPHA)          =   15
 NUMBER OF OCCUPIED ORBITALS (BETA )          =   15
 TOTAL NUMBER OF ATOMS                        =    9
 THE NUCLEAR REPULSION ENERGY IS       84.1356637275

     LEBEDEV GRID-BASED DFT OPTIONS
     ------------------------------
     DFTTYP=B3LYP   
     NRAD  =      96     NLEB  =     302
     NRAD0 =      24     NLEB0 =     110
     SWOFF =    5.00E-03 (PURE SCF -> DFT)
     SWITCH=    3.00E-04 (COARSE -> TIGHT GRID)
     THRESH=    0.00E+00 GTHRE=    1.00E+00

 GRIMME'S EMPIRICAL DISPERSION CORRECTION= F

     $CONTRL OPTIONS
     ---------------
 SCFTYP=RHF          RUNTYP=ENERGY       EXETYP=RUN     
 MPLEVL=       0     CITYP =NONE         CCTYP =NONE         VBTYP =NONE    
 DFTTYP=B3LYP        TDDFT =NONE    
 MULT  =       1     ICHARG=       0     NZVAR =       0     COORD =UNIQUE  
 PP    =NONE         RELWFN=NONE         LOCAL =NONE         NUMGRD=       F
 ISPHER=       1     NOSYM =       1     MAXIT =      30     UNITS =ANGS    
 PLTORB=       F     MOLPLT=       F     AIMPAC=       F     FRIEND=        
 NPRINT=       7     IREST =       0     GEOM  =INPUT   
 NORMF =       0     NORMP =       0     ITOL  =      20     ICUT  =       9
 INTTYP=BEST         GRDTYP=BEST         QMTTOL= 1.0E-06

     $SYSTEM OPTIONS
     ---------------
  REPLICATED MEMORY=   100000000 WORDS (ON EVERY NODE).
 DISTRIBUTED MEMDDI=           0 MILLION WORDS IN AGGREGATE,
 MEMDDI DISTRIBUTED OVER   1 PROCESSORS IS           0 WORDS/PROCESSOR.
 TOTAL MEMORY REQUESTED ON EACH PROCESSOR=   100000000 WORDS.
 TIMLIM=      525600.00 MINUTES, OR     365.0 DAYS.
 PARALL= F  BALTYP=  DLB     KDIAG=    0  COREFL= F
 MXSEQ2=     300 MXSEQ3=     150  mem10=         0

          ----------------
          PROPERTIES INPUT
          ----------------

     MOMENTS            FIELD           POTENTIAL          DENSITY
 IEMOM =       1   IEFLD =       0   IEPOT =       0   IEDEN =       0
 WHERE =COMASS     WHERE =NUCLEI     WHERE =NUCLEI     WHERE =NUCLEI  
 OUTPUT=BOTH       OUTPUT=BOTH       OUTPUT=BOTH       OUTPUT=BOTH    
 IEMINT=       0   IEFINT=       0                     IEDINT=       0
                                                       MORB  =       0
          EXTRAPOLATION IN EFFECT
          DIIS IN EFFECT
 ORBITAL PRINTING OPTION: NPREO=     1   315     2     1

     -------------------------------
     INTEGRAL TRANSFORMATION OPTIONS
     -------------------------------
     NWORD  =            0
     CUTOFF = 1.0E-09     MPTRAN =       0
     DIRTRF =       F     AOINTS =DUP     

          ----------------------
          INTEGRAL INPUT OPTIONS
          ----------------------
 NOPK  =       1 NORDER=       0 SCHWRZ=       T

     ------------------------------------------
     THE POINT GROUP IS C1 , NAXIS= 1, ORDER= 1
     ------------------------------------------

 -- VARIATIONAL SPACE WILL BE RESTRICTED TO PURE SPHERICAL HARMONICS ONLY --
 AFTER EXCLUDING CONTAMINANT COMBINATIONS FROM THE CARTESIAN GAUSSIAN BASIS
 SET, THE NUMBER OF SPHERICAL HARMONICS KEPT IN THE VARIATION SPACE IS  276

     DIMENSIONS OF THE SYMMETRY SUBSPACES ARE
 A   =  276

 ..... DONE SETTING UP THE RUN .....
 STEP CPU TIME =     0.04 TOTAL CPU TIME =          0.0 (      0.0 MIN)
 TOTAL WALL CLOCK TIME=          0.1 SECONDS, CPU UTILIZATION IS    66.67%

          ********************
          1 ELECTRON INTEGRALS
          ********************
 ...... END OF ONE-ELECTRON INTEGRALS ......
 STEP CPU TIME =     0.03 TOTAL CPU TIME =          0.1 (      0.0 MIN)
 TOTAL WALL CLOCK TIME=          0.1 SECONDS, CPU UTILIZATION IS    87.50%

          -------------
          GUESS OPTIONS
          -------------
          GUESS =HUCKEL            NORB  =       0          NORDER=       0
          MIX   =       F          PRTMO =       F          PUNMO =       F
          TOLZ  = 1.0E-08          TOLE  = 1.0E-05
          SYMDEN=       F          PURIFY=       F

 INITIAL GUESS ORBITALS GENERATED BY HUCKEL   ROUTINE.
 HUCKEL GUESS REQUIRES    712872 WORDS.

 STATISTICS FOR GENERATION OF SYMMETRY ORBITAL -Q- MATRIX
 NUMBER OF CARTESIAN ATOMIC ORBITALS=        315
 NUMBER OF SPHERICAL CONTAMINANTS DROPPED=    39
 NUMBER OF LINEARLY DEPENDENT MOS DROPPED=     0
 TOTAL NUMBER OF MOS IN VARIATION SPACE=     276

 SYMMETRIES FOR INITIAL GUESS ORBITALS FOLLOW.   BOTH SET(S).
    15 ORBITALS ARE OCCUPIED (    3 CORE ORBITALS).
     4=A        5=A        6=A        7=A        8=A        9=A       10=A   
    11=A       12=A       13=A       14=A       15=A       16=A       17=A   
    18=A       19=A       20=A       21=A       22=A       23=A       24=A   
    25=A   
 ...... END OF INITIAL ORBITAL SELECTION ......
 STEP CPU TIME =     0.32 TOTAL CPU TIME =          0.4 (      0.0 MIN)
 TOTAL WALL CLOCK TIME=          0.4 SECONDS, CPU UTILIZATION IS    95.12%

                    ----------------------
                    AO INTEGRAL TECHNOLOGY
                    ----------------------
     S,P,L SHELL ROTATED AXIS INTEGRALS, REPROGRAMMED BY
        KAZUYA ISHIMURA (IMS) AND JOSE SIERRA (SYNSTAR).
     S,P,D,L SHELL ROTATED AXIS INTEGRALS PROGRAMMED BY
        KAZUYA ISHIMURA (INSTITUTE FOR MOLECULAR SCIENCE).
     S,P,D,F,G SHELL TO TOTAL QUARTET ANGULAR MOMENTUM SUM 5,
        ERIC PROGRAM BY GRAHAM FLETCHER (ELORET AND NASA ADVANCED
        SUPERCOMPUTING DIVISION, AMES RESEARCH CENTER).
     S,P,D,F,G,L SHELL GENERAL RYS QUADRATURE PROGRAMMED BY
        MICHEL DUPUIS (PACIFIC NORTHWEST NATIONAL LABORATORY).

          --------------------
          2 ELECTRON INTEGRALS
          --------------------

 THE -PK- OPTION IS OFF, THE INTEGRALS ARE NOT IN SUPERMATRIX FORM.
 STORING   15000 INTEGRALS/RECORD ON DISK, USING 16 BYTES/INTEGRAL.
 TWO ELECTRON INTEGRAL EVALUATION REQUIRES  103756 WORDS OF MEMORY.
 SCHWARZ INEQUALITY OVERHEAD:     49689 INTEGRALS, T=        0.01
 II,JST,KST,LST =  1  1  1  1 NREC =         1 INTLOC =    1
 II,JST,KST,LST =  2  1  1  1 NREC =         1 INTLOC =    2
 II,JST,KST,LST =  3  1  1  1 NREC =         1 INTLOC =    7
 II,JST,KST,LST =  4  1  1  1 NREC =         1 INTLOC =   22
 II,JST,KST,LST =  5  1  1  1 NREC =         1 INTLOC =   56
 II,JST,KST,LST =  6  1  1  1 NREC =         1 INTLOC =  125
 II,JST,KST,LST =  7  1  1  1 NREC =         1 INTLOC =  329
 II,JST,KST,LST =  8  1  1  1 NREC =         1 INTLOC =  776
 II,JST,KST,LST =  9  1  1  1 NREC =         1 INTLOC = 2864
 II,JST,KST,LST = 10  1  1  1 NREC =         1 INTLOC = 7967
 II,JST,KST,LST = 11  1  1  1 NREC =         2 INTLOC =12194
 II,JST,KST,LST = 12  1  1  1 NREC =         3 INTLOC =  731
 II,JST,KST,LST = 13  1  1  1 NREC =         3 INTLOC =11855
 II,JST,KST,LST = 14  1  1  1 NREC =         5 INTLOC =12962
 II,JST,KST,LST = 15  1  1  1 NREC =        11 INTLOC = 7589
 II,JST,KST,LST = 16  1  1  1 NREC =        13 INTLOC =12837
 II,JST,KST,LST = 17  1  1  1 NREC =        17 INTLOC =   56
 II,JST,KST,LST = 18  1  1  1 NREC =        19 INTLOC = 1764
 II,JST,KST,LST = 19  1  1  1 NREC =        22 INTLOC = 9898
 II,JST,KST,LST = 20  1  1  1 NREC =        29 INTLOC = 5728
 II,JST,KST,LST = 21  1  1  1 NREC =        41 INTLOC = 6182
 II,JST,KST,LST = 22  1  1  1 NREC =        55 INTLOC =13315
 II,JST,KST,LST = 23  1  1  1 NREC =        78 INTLOC =12489
 II,JST,KST,LST = 24  1  1  1 NREC =       119 INTLOC =10743
 II,JST,KST,LST = 25  1  1  1 NREC =       193 INTLOC = 9039
 II,JST,KST,LST = 26  1  1  1 NREC =       205 INTLOC = 1621
 II,JST,KST,LST = 27  1  1  1 NREC =       240 INTLOC = 4415
 II,JST,KST,LST = 28  1  1  1 NREC =       321 INTLOC =   81
 II,JST,KST,LST = 29  1  1  1 NREC =       485 INTLOC =14012
 II,JST,KST,LST = 30  1  1  1 NREC =       497 INTLOC =12412
 II,JST,KST,LST = 31  1  1  1 NREC =       516 INTLOC =14544
 II,JST,KST,LST = 32  1  1  1 NREC =       529 INTLOC = 3237
 II,JST,KST,LST = 33  1  1  1 NREC =       552 INTLOC = 9653
 II,JST,KST,LST = 34  1  1  1 NREC =       588 INTLOC = 2957
 II,JST,KST,LST = 35  1  1  1 NREC =       652 INTLOC =12492
 II,JST,KST,LST = 36  1  1  1 NREC =       735 INTLOC =  268
 II,JST,KST,LST = 37  1  1  1 NREC =       836 INTLOC = 1996
 II,JST,KST,LST = 38  1  1  1 NREC =      1020 INTLOC =  404
 II,JST,KST,LST = 39  1  1  1 NREC =      1293 INTLOC = 9387
 II,JST,KST,LST = 40  1  1  1 NREC =      1340 INTLOC =14816
 II,JST,KST,LST = 41  1  1  1 NREC =      1482 INTLOC =12666
 II,JST,KST,LST = 42  1  1  1 NREC =      1790 INTLOC = 4508
 II,JST,KST,LST = 43  1  1  1 NREC =      2358 INTLOC =14803
 II,JST,KST,LST = 44  1  1  1 NREC =      2469 INTLOC =  593
 II,JST,KST,LST = 45  1  1  1 NREC =      2601 INTLOC =10441
 II,JST,KST,LST = 46  1  1  1 NREC =      2739 INTLOC = 2734
 II,JST,KST,LST = 47  1  1  1 NREC =      3091 INTLOC = 8918
 II,JST,KST,LST = 48  1  1  1 NREC =      3535 INTLOC = 4863
 II,JST,KST,LST = 49  1  1  1 NREC =      4398 INTLOC = 4454
 II,JST,KST,LST = 50  1  1  1 NREC =      4568 INTLOC = 8104
 II,JST,KST,LST = 51  1  1  1 NREC =      5110 INTLOC = 1526
 II,JST,KST,LST = 52  1  1  1 NREC =      6278 INTLOC = 7474
 II,JST,KST,LST = 53  1  1  1 NREC =      6457 INTLOC = 5494
 II,JST,KST,LST = 54  1  1  1 NREC =      6666 INTLOC = 8509
 II,JST,KST,LST = 55  1  1  1 NREC =      6881 INTLOC =12324
 II,JST,KST,LST = 56  1  1  1 NREC =      7449 INTLOC = 7621
 II,JST,KST,LST = 57  1  1  1 NREC =      8137 INTLOC = 3944
 II,JST,KST,LST = 58  1  1  1 NREC =      9491 INTLOC =14797
 II,JST,KST,LST = 59  1  1  1 NREC =      9750 INTLOC =10356
 II,JST,KST,LST = 60  1  1  1 NREC =     10563 INTLOC = 5715
 II,JST,KST,LST = 61  1  1  1 NREC =     12299 INTLOC =  955
 II,JST,KST,LST = 62  1  1  1 NREC =     12564 INTLOC = 6305
 II,JST,KST,LST = 63  1  1  1 NREC =     12870 INTLOC =13359
 II,JST,KST,LST = 64  1  1  1 NREC =     13185 INTLOC = 2735
 II,JST,KST,LST = 65  1  1  1 NREC =     14016 INTLOC = 6985
 II,JST,KST,LST = 66  1  1  1 NREC =     15007 INTLOC = 9220
 II,JST,KST,LST = 67  1  1  1 NREC =     16939 INTLOC = 9313
 II,JST,KST,LST = 68  1  1  1 NREC =     17308 INTLOC =11472
 II,JST,KST,LST = 69  1  1  1 NREC =     18456 INTLOC = 3159
 II,JST,KST,LST = 70  1  1  1 NREC =     20882 INTLOC =12270
 II,JST,KST,LST = 71  1  1  1 NREC =     21165 INTLOC =12416
 II,JST,KST,LST = 72  1  1  1 NREC =     21573 INTLOC = 9289
 II,JST,KST,LST = 73  1  1  1 NREC =     22015 INTLOC = 9648
 II,JST,KST,LST = 74  1  1  1 NREC =     22890 INTLOC =  700
 II,JST,KST,LST = 75  1  1  1 NREC =     24168 INTLOC = 5235
 II,JST,KST,LST = 76  1  1  1 NREC =     26233 INTLOC =  985
 II,JST,KST,LST = 77  1  1  1 NREC =     26743 INTLOC =12020
 II,JST,KST,LST = 78  1  1  1 NREC =     28314 INTLOC =10044
 II,JST,KST,LST = 79  1  1  1 NREC =     31558 INTLOC =14053
 II,JST,KST,LST = 80  1  1  1 NREC =     31929 INTLOC =  308
 II,JST,KST,LST = 81  1  1  1 NREC =     32466 INTLOC =10819
 II,JST,KST,LST = 82  1  1  1 NREC =     33054 INTLOC = 5657
 II,JST,KST,LST = 83  1  1  1 NREC =     34187 INTLOC = 1936
 II,JST,KST,LST = 84  1  1  1 NREC =     35852 INTLOC =11594
 II,JST,KST,LST = 85  1  1  1 NREC =     38508 INTLOC = 8256
 II,JST,KST,LST = 86  1  1  1 NREC =     39179 INTLOC = 4977
 II,JST,KST,LST = 87  1  1  1 NREC =     41229 INTLOC =11055
 II,JST,KST,LST = 88  1  1  1 NREC =     45422 INTLOC =11705
 II,JST,KST,LST = 89  1  1  1 NREC =     45877 INTLOC = 2921
 II,JST,KST,LST = 90  1  1  1 NREC =     46553 INTLOC =12166
 II,JST,KST,LST = 91  1  1  1 NREC =     47309 INTLOC =14025
 II,JST,KST,LST = 92  1  1  1 NREC =     48691 INTLOC =10658
 II,JST,KST,LST = 93  1  1  1 NREC =     50763 INTLOC = 6403
 II,JST,KST,LST = 94  1  1  1 NREC =     53997 INTLOC =12356
 II,JST,KST,LST = 95  1  1  1 NREC =     54852 INTLOC =11748
 II,JST,KST,LST = 96  1  1  1 NREC =     57453 INTLOC =12796
 SCHWARZ INEQUALITY TEST SKIPPED     1077807 INTEGRAL BLOCKS.
 TOTAL NUMBER OF NONZERO TWO-ELECTRON INTEGRALS =           940516012
      62702 INTEGRAL RECORDS WERE STORED ON DISK FILE  8.
  ...... END OF TWO-ELECTRON INTEGRALS .....
 STEP CPU TIME =    47.82 TOTAL CPU TIME =         48.2 (      0.8 MIN)
 TOTAL WALL CLOCK TIME=         74.5 SECONDS, CPU UTILIZATION IS    64.69%

          --------------------------
             R-B3LYP SCF CALCULATION
          --------------------------

     NUCLEAR ENERGY =        84.1356637275
     MAXIT =   30     NPUNCH=    2
     EXTRAP=T  DAMP=F  SHIFT=F  RSTRCT=F  DIIS=T  DEM=F  SOSCF=F
         DENSITY MATRIX CONVERGENCE THRESHOLD=  1.00E-05
     COARSE -> FINE DFT GRID SWITCH THRESHOLD=  3.00E-04 (SWITCH IN $DFT)
                   HF -> DFT SWITCH THRESHOLD=  5.00E-03 (SWOFF IN $DFT)
     MEMORY REQUIRED FOR RHF ITERS=   1098684 WORDS.

 DFT CODE IS SWITCHING FROM THE FINE GRID NRAD= 96,  NLEB=  302
                      TO THE COARSE GRID NRAD0= 24, NLEB0=  110

     EXCHANGE FUNCTIONAL   =B88&HFX   
     CORRELATION FUNCTIONAL=LYP88&VWN5
     DFT THRESHOLD         =.153E-07
     GRID CHANGE THRESHOLD =.300E-03
 FOR AN EULER-MACLAURIN QUADRATURE USING  96 RADIAL POINTS:
 SMALLEST GAUSSIAN PRIMITIVE EXPONENT=        0.0252600000 OF TYPE -S-
 ON ATOM NUMBER   4 HAS RADIAL NORMALIZATION=  1.000000
  LARGEST GAUSSIAN PRIMITIVE EXPONENT=    15330.0000000000 OF TYPE -S-
 ON ATOM NUMBER   1 HAS RADIAL NORMALIZATION=  1.000000
 DFT IS SWITCHED OFF, PERFORMING PURE SCF UNTIL SWOFF THRESHOLD IS REACHED.

 ITER EX DEM     TOTAL ENERGY        E CHANGE  DENSITY CHANGE    DIIS ERROR
          * * *   INITIATING DIIS PROCEDURE   * * *
   1  0  0     -227.3317355780  -227.3317355780   0.657065052   0.383633125
   2  1  0     -228.1473315108    -0.8155959328   0.072894675   0.055667407
   3  2  0     -228.1908222335    -0.0434907227   0.017678889   0.016949139
   4  3  0     -228.1953714807    -0.0045492472   0.003269191   0.004805133
 CONVERGED TO SWOFF, SO DFT CALCULATION IS NOW SWITCHED ON.
          * * *   INITIATING DIIS PROCEDURE   * * *
   5  4  0     -229.2844469811    -1.0890755004   0.029761767   0.045782874
   6  5  0     -229.3088232326    -0.0243762515   0.007313935   0.006157157
   7  6  0     -229.3085355602     0.0002876724   0.003653733   0.008696340
   8  7  0     -229.3092864626    -0.0007509024   0.000783521   0.001843516
   9  8  0     -229.3093239340    -0.0000374715   0.000069193   0.000125130
 DFT CODE IS SWITCHING BACK TO THE FINE GRID
          * * *   INITIATING DIIS PROCEDURE   * * *
  10  9  0     -229.3088271976     0.0004967364   0.005630746   0.001161317
  11 10  0     -229.3088498912    -0.0000226936   0.000210971   0.000100132
  12 11  0     -229.3088499490    -0.0000000578   0.000069203   0.000115028
  13 12  0     -229.3088500679    -0.0000001189   0.000016681   0.000029536
  14 13  0     -229.3088500796    -0.0000000118   0.000002863   0.000005334
  15 14  0     -229.3088500799    -0.0000000003   0.000000914   0.000000663
  16 15  0     -229.3088500799     0.0000000000   0.000000436   0.000000646

          -----------------
          DENSITY CONVERGED
          -----------------
     TIME TO FORM FOCK OPERATORS=     468.5 SECONDS (      29.3 SEC/ITER)
     TIME TO SOLVE SCF EQUATIONS=       4.1 SECONDS (       0.3 SEC/ITER)

 FINAL R-B3LYP ENERGY IS     -229.3088500799 AFTER  16 ITERATIONS
 DFT EXCHANGE + CORRELATION ENERGY =       -22.5449631081
 TOTAL ELECTRON NUMBER             =        29.9999763265

          ------------
          EIGENVECTORS
          ------------

                      1          2          3          4          5
                  -19.1322   -19.1322   -19.1322    -1.0237    -1.0080
                     A          A          A          A          A   
    1  O  1  S   -0.291606   0.815312   0.441712  -0.011451   0.011011
    2  O  1  S    0.000374  -0.001120  -0.000656   0.277925  -0.278887
    3  O  1  S   -0.015390   0.042952   0.023257   0.080709  -0.081246
    4  O  1  S   -0.000339   0.003722   0.003216   0.168125  -0.163578
    5  O  1  X    0.000290  -0.000804  -0.000423  -0.023575   0.024430
    6  O  1  Y   -0.000099   0.000238   0.000137   0.010310  -0.005646
    7  O  1  Z   -0.000277   0.000761   0.000396   0.021502  -0.022402
    8  O  1  X    0.000122  -0.000505  -0.000355  -0.028392   0.029296
    9  O  1  Y    0.000044   0.000151   0.000009   0.013027  -0.008329
   10  O  1  Z   -0.000044   0.000259   0.000262   0.026190  -0.026323
   11  O  1  X   -0.000300   0.001122  -0.000388  -0.005094   0.004663
   12  O  1  Y    0.001644   0.000540  -0.000287   0.007297  -0.002950
   13  O  1  Z   -0.000006  -0.000550   0.000246   0.008925  -0.005906
   14  O  1 XX    0.000052  -0.000098  -0.000057  -0.000630   0.000610
   15  O  1 YY   -0.000096   0.000219   0.000119   0.001330  -0.001196
   16  O  1 ZZ    0.000044  -0.000121  -0.000061  -0.000699   0.000586
   17  O  1 XY    0.000007  -0.000040  -0.000020  -0.000496   0.000327
   18  O  1 XZ    0.000063  -0.000179  -0.000093  -0.001467   0.001514
   19  O  1 YZ    0.000082  -0.000216  -0.000108  -0.001108   0.001206
   20  O  1 XX   -0.000107   0.000008   0.000008  -0.000510  -0.000065
   21  O  1 YY    0.000221  -0.000165  -0.000084   0.002354  -0.001282
   22  O  1 ZZ   -0.000114   0.000157   0.000076  -0.001844   0.001347
   23  O  1 XY    0.000003  -0.000056  -0.000008  -0.000626   0.001307
   24  O  1 XZ   -0.000035   0.000049  -0.000049  -0.003696   0.003409
   25  O  1 YZ   -0.000126   0.000244   0.000021  -0.001933   0.001594
   26  O  1 XXX  -0.000061   0.000186   0.000065   0.000677  -0.000615
   27  O  1 YYY  -0.000053   0.000163   0.000099   0.000614  -0.000441
   28  O  1 ZZZ   0.000017  -0.000069  -0.000038  -0.000333   0.000304
   29  O  1 XXY   0.000019  -0.000018  -0.000016  -0.000006  -0.000085
   30  O  1 XXZ  -0.000002   0.000003  -0.000007   0.000148  -0.000162
   31  O  1 YYX   0.000071  -0.000234  -0.000095  -0.000745   0.000722
   32  O  1 YYZ  -0.000020   0.000090   0.000057   0.000300  -0.000246
   33  O  1 ZZX   0.000011  -0.000015   0.000008  -0.000163   0.000103
   34  O  1 ZZY   0.000052  -0.000201  -0.000117  -0.000818   0.000676
   35  O  1 XYZ  -0.000034   0.000114   0.000066   0.000374  -0.000317
   36  O  1  S   -0.000837   0.002316   0.000749   0.023138  -0.031003
   37  O  1  X    0.000197   0.000310  -0.000214  -0.000658   0.001696
   38  O  1  Y    0.000111   0.000157   0.000177   0.002405  -0.004739
   39  O  1  Z   -0.000073   0.000147   0.000007   0.000857  -0.000762
   40  O  1 XX   -0.000643   0.000501   0.000225   0.001802  -0.003871
   41  O  1 YY    0.000890  -0.000795  -0.000452  -0.002256   0.004531
   42  O  1 ZZ   -0.000247   0.000295   0.000228   0.000454  -0.000660
   43  O  1 XY   -0.000461   0.000277   0.000140   0.001084  -0.001016
   44  O  1 XZ   -0.000063   0.000420   0.000022   0.000180  -0.001001
   45  O  1 YZ   -0.000160   0.000517  -0.000031   0.000716  -0.001648
   46  O  1 XXX   0.000236  -0.000550  -0.000174  -0.000111   0.000200
   47  O  1 YYY   0.000248  -0.000465  -0.000272  -0.000520   0.000974
   48  O  1 ZZZ  -0.000037   0.000201   0.000095  -0.000029   0.000109
   49  O  1 XXY  -0.000115   0.000041   0.000034   0.000429  -0.000978
   50  O  1 XXZ  -0.000005   0.000055   0.000077   0.000570  -0.000444
   51  O  1 YYX  -0.000297   0.000760   0.000282   0.000721  -0.000640
   52  O  1 YYZ   0.000055  -0.000325  -0.000204  -0.000531   0.000297
   53  O  1 ZZX  -0.000020  -0.000022  -0.000049  -0.000572   0.000372
   54  O  1 ZZY  -0.000218   0.000583   0.000332   0.000268  -0.000330
   55  O  1 XYZ   0.000134  -0.000375  -0.000143  -0.000284   0.000474
   56  O  2  S   -0.147230  -0.497911   0.821758  -0.011451   0.004435
   57  O  2  S    0.000181   0.000652  -0.001169   0.277905  -0.111273
   58  O  2  S   -0.007754  -0.026258   0.043278   0.080701  -0.032495
   59  O  2  S   -0.000264  -0.001219   0.004749   0.168450  -0.065582
   60  O  2  X   -0.000047  -0.000111   0.000189   0.002859  -0.003498
   61  O  2  Y    0.000148   0.000507  -0.000816  -0.025568   0.012685
   62  O  2  Z   -0.000146  -0.000471   0.000754   0.021500  -0.009016
   63  O  2  X    0.000065  -0.000108   0.000195   0.002917  -0.003808
   64  O  2  Y    0.000107   0.000221  -0.000553  -0.031116   0.015403
   65  O  2  Z    0.000013  -0.000096   0.000358   0.026200  -0.010630
   66  O  2  X    0.001447  -0.000697  -0.000482  -0.003753   0.003496
   67  O  2  Y   -0.000187  -0.001264   0.000178  -0.008097   0.005631
   68  O  2  Z    0.000525   0.000237  -0.000174   0.008985  -0.002940
   69  O  2 XX   -0.000014  -0.000080   0.000109   0.000467  -0.000102
   70  O  2 YY   -0.000010   0.000005   0.000009   0.000232  -0.000157
   71  O  2 ZZ    0.000024   0.000075  -0.000119  -0.000699   0.000259
   72  O  2 XY   -0.000026  -0.000121   0.000179   0.001227  -0.000550
   73  O  2 XZ   -0.000055  -0.000173   0.000271   0.001693  -0.000739
   74  O  2 YZ    0.000009   0.000025  -0.000049  -0.000717   0.000320
   75  O  2 XX    0.000012   0.000179  -0.000138   0.001174  -0.000100
   76  O  2 YY    0.000001  -0.000030  -0.000007   0.000673  -0.000379
   77  O  2 ZZ   -0.000013  -0.000149   0.000145  -0.001846   0.000480
   78  O  2 XY   -0.000048   0.000161  -0.000050   0.001750  -0.001564
   79  O  2 XZ    0.000113   0.000203  -0.000132   0.003531  -0.001222
   80  O  2 YZ    0.000006   0.000051  -0.000086  -0.002235   0.000946
   81  O  2 XXX  -0.000031  -0.000050   0.000057   0.000145  -0.000122
   82  O  2 YYY   0.000003  -0.000014  -0.000003   0.000008  -0.000059
   83  O  2 ZZZ   0.000015   0.000035  -0.000071  -0.000334   0.000133
   84  O  2 XXY   0.000006   0.000056  -0.000099  -0.000278   0.000239
   85  O  2 XXZ  -0.000028  -0.000081   0.000162   0.000543  -0.000208
   86  O  2 YYX   0.000080   0.000165  -0.000261  -0.000985   0.000408
   87  O  2 YYZ   0.000008   0.000033  -0.000067  -0.000095   0.000030
   88  O  2 ZZX  -0.000039  -0.000098   0.000184   0.000791  -0.000244
   89  O  2 ZZY  -0.000010  -0.000037   0.000103   0.000268  -0.000160
   90  O  2 XYZ   0.000005   0.000012  -0.000008  -0.000111   0.000046
   91  O  2  S   -0.000743  -0.001543   0.001909   0.023739  -0.016546
   92  O  2  X    0.000239  -0.000069  -0.000234  -0.001882   0.003141
   93  O  2  Y   -0.000346  -0.000001  -0.000057  -0.001875  -0.002164
   94  O  2  Z   -0.000066  -0.000119   0.000091   0.000879  -0.001344
   95  O  2 XX    0.000000   0.000217  -0.000281  -0.000433   0.000518
   96  O  2 YY   -0.000042   0.000079  -0.000049  -0.000039  -0.000166
   97  O  2 ZZ    0.000042  -0.000296   0.000330   0.000471  -0.000352
   98  O  2 XY   -0.000115   0.001133  -0.000687  -0.002604  -0.001034
   99  O  2 XZ    0.000382   0.000403  -0.000389  -0.000678   0.000903
  100  O  2 YZ   -0.000058  -0.000011   0.000097  -0.000197   0.000303
  101  O  2 XXX   0.000112   0.000201  -0.000211  -0.000463   0.000355
  102  O  2 YYY  -0.000033   0.000061   0.000054  -0.000018   0.000000
  103  O  2 ZZZ  -0.000059  -0.000093   0.000196  -0.000028  -0.000015
  104  O  2 XXY   0.000006  -0.000246   0.000272   0.000654  -0.000225
  105  O  2 XXZ   0.000131   0.000279  -0.000494  -0.000466   0.000258
  106  O  2 YYX  -0.000234  -0.000592   0.000775   0.000564  -0.000373
  107  O  2 YYZ  -0.000053  -0.000154   0.000230   0.000503  -0.000237
  108  O  2 ZZX   0.000084   0.000322  -0.000492   0.000056  -0.000103
  109  O  2 ZZY   0.000038   0.000165  -0.000345  -0.000630   0.000224
  110  O  2 XYZ  -0.000029  -0.000045  -0.000058  -0.000410   0.000025
  111  O  3  S    0.915530   0.179605   0.272807  -0.011454  -0.015444
  112  O  3  S   -0.001254  -0.000260  -0.000428   0.277953   0.390112
  113  O  3  S    0.048240   0.009472   0.014345   0.080714   0.113726
  114  O  3  S    0.003966   0.000935   0.002706   0.168698   0.229280
  115  O  3  X    0.000688   0.000143   0.000196   0.020716   0.026338
  116  O  3  Y    0.000644   0.000115   0.000186   0.015263   0.027703
  117  O  3  Z    0.000854   0.000160   0.000240   0.021503   0.031413
  118  O  3  X    0.000385  -0.000005   0.000179   0.025507   0.033302
  119  O  3  Y    0.000421   0.000147   0.000201   0.018091   0.032208
  120  O  3  Z    0.000289   0.000103   0.000207   0.026209   0.036954
  121  O  3  X   -0.000691  -0.001041   0.000921   0.009044   0.011573
  122  O  3  Y   -0.000861   0.001152  -0.000186   0.000890   0.002360
  123  O  3  Z   -0.000470   0.000361   0.000083   0.009049   0.008877
  124  O  3 XX    0.000191   0.000038   0.000053   0.001211   0.001544
  125  O  3 YY   -0.000056  -0.000014  -0.000016  -0.000512  -0.000700
  126  O  3 ZZ   -0.000135  -0.000024  -0.000037  -0.000699  -0.000844
  127  O  3 XY   -0.000164  -0.000046  -0.000035  -0.000732  -0.000987
  128  O  3 XZ   -0.000111  -0.000020  -0.000025  -0.000226  -0.000380
  129  O  3 YZ    0.000294   0.000054   0.000082   0.001824   0.002714
  130  O  3 XX   -0.000132  -0.000096   0.000030   0.002121   0.003448
  131  O  3 YY   -0.000065   0.000030  -0.000040  -0.000270  -0.001618
  132  O  3 ZZ    0.000197   0.000067   0.000011  -0.001851  -0.001830
  133  O  3 XY    0.000174   0.000100  -0.000049  -0.001123  -0.000598
  134  O  3 XZ    0.000211   0.000020   0.000002   0.000172   0.000533
  135  O  3 YZ   -0.000182   0.000019   0.000056   0.004181   0.005283
  136  O  3 XXX   0.000294   0.000035   0.000089   0.000938   0.001260
  137  O  3 YYY  -0.000010   0.000010  -0.000001  -0.000150  -0.000101
  138  O  3 ZZZ  -0.000075  -0.000010  -0.000028  -0.000334  -0.000437
  139  O  3 XXY  -0.000111  -0.000029  -0.000033  -0.000349  -0.000423
  140  O  3 XXZ  -0.000021  -0.000005  -0.000003  -0.000019  -0.000018
  141  O  3 YYX  -0.000213  -0.000013  -0.000040  -0.000632  -0.000896
  142  O  3 YYZ   0.000121   0.000019   0.000040   0.000467   0.000604
  143  O  3 ZZX  -0.000181  -0.000034  -0.000079  -0.000627  -0.000795
  144  O  3 ZZY   0.000124   0.000015   0.000034   0.000551   0.000559
  145  O  3 XYZ  -0.000111  -0.000022  -0.000048  -0.000264  -0.000297
  146  O  3  S    0.002530   0.000158   0.000282   0.024155   0.047630
  147  O  3  X    0.000015   0.000176   0.000167   0.002630   0.004660
  148  O  3  Y   -0.000215   0.000353  -0.000104  -0.000786  -0.004689
  149  O  3  Z    0.000161  -0.000004  -0.000023   0.000922   0.002123
  150  O  3 XX   -0.000997  -0.000564   0.000143  -0.002048  -0.002403
  151  O  3 YY    0.000605   0.000362  -0.000202   0.001571   0.001395
  152  O  3 ZZ    0.000392   0.000202   0.000059   0.000477   0.001009
  153  O  3 XY    0.000705   0.000342  -0.000064   0.001507   0.003522
  154  O  3 XZ    0.000252  -0.000040  -0.000060   0.000519   0.001650
  155  O  3 YZ   -0.000622   0.000138  -0.000014  -0.000462  -0.002325
  156  O  3 XXX  -0.000951  -0.000145  -0.000208  -0.000717  -0.001046
  157  O  3 YYY  -0.000011  -0.000053   0.000025  -0.000576  -0.001116
  158  O  3 ZZZ   0.000211   0.000012   0.000079  -0.000027  -0.000095
  159  O  3 XXY   0.000328   0.000135   0.000022   0.000406   0.001140
  160  O  3 XXZ   0.000067   0.000004  -0.000051  -0.000047   0.000341
  161  O  3 YYX   0.000696   0.000064   0.000078   0.000450   0.000792
  162  O  3 YYZ  -0.000349  -0.000020  -0.000054   0.000084  -0.000213
  163  O  3 ZZX   0.000581   0.000131   0.000202   0.000512   0.000611
  164  O  3 ZZY  -0.000314  -0.000064  -0.000056   0.000367   0.000358
  165  O  3 XYZ   0.000411   0.000063   0.000157   0.000692   0.000867
  166  H  4  S   -0.000208   0.000712   0.000351   0.054509  -0.046777
  167  H  4  S   -0.002263   0.000053  -0.000294   0.043900  -0.039652
  168  H  4  S    0.001679  -0.002989  -0.000768  -0.015009   0.019483
  169  H  4  X   -0.000022   0.000036   0.000015   0.003334  -0.002951
  170  H  4  Y   -0.000020   0.000075   0.000022  -0.006532   0.007270
  171  H  4  Z    0.000003  -0.000047  -0.000021  -0.000074   0.000054
  172  H  4  X   -0.000331  -0.000616  -0.000196   0.002266  -0.003527
  173  H  4  Y   -0.000331   0.000945   0.000658  -0.003333   0.005258
  174  H  4  Z    0.000213  -0.000007   0.000080   0.000143   0.000162
  175  H  4 XX   -0.000053   0.000176   0.000140  -0.000409   0.000057
  176  H  4 YY    0.000141  -0.000593  -0.000353   0.001408  -0.000752
  177  H  4 ZZ   -0.000088   0.000417   0.000214  -0.000999   0.000695
  178  H  4 XY   -0.000157   0.000547   0.000295  -0.001010   0.001293
  179  H  4 XZ    0.000007   0.000044   0.000036   0.000000   0.000059
  180  H  4 YZ    0.000006  -0.000029  -0.000018   0.000127  -0.000148
  181  H  4  S   -0.000080   0.000391  -0.000078  -0.001590   0.001735
  182  H  4  X    0.000305  -0.001046  -0.000249  -0.003010   0.003646
  183  H  4  Y   -0.001759   0.001769   0.000641   0.004336  -0.015435
  184  H  4  Z    0.000221  -0.000010   0.000214   0.000516  -0.000098
  185  H  4 XX   -0.000214  -0.000201  -0.000097  -0.000043  -0.001353
  186  H  4 YY    0.000689   0.000012   0.000149  -0.000297   0.002646
  187  H  4 ZZ   -0.000475   0.000189  -0.000052   0.000340  -0.001294
  188  H  4 XY    0.000156   0.000392   0.000136   0.001054  -0.000673
  189  H  4 XZ    0.000053   0.000007   0.000045   0.000022   0.000027
  190  H  4 YZ   -0.000149  -0.000035  -0.000125  -0.000258   0.000165
  191  H  5  S   -0.000169  -0.000398   0.000698   0.054508  -0.023656
  192  H  5  S    0.000622  -0.002107  -0.000462   0.043849  -0.017364
  193  H  5  S    0.000844   0.002566  -0.002273  -0.015397   0.012024
  194  H  5  X    0.000027   0.000052  -0.000070   0.003990  -0.001516
  195  H  5  Y    0.000008  -0.000005  -0.000004   0.006151  -0.002312
  196  H  5  Z    0.000017   0.000017  -0.000046  -0.000073   0.000041
  197  H  5  X   -0.000138   0.000533  -0.000621   0.001730  -0.001176
  198  H  5  Y    0.000390   0.000191  -0.001035   0.003596  -0.000299
  199  H  5  Z   -0.000025   0.000208   0.000083   0.000150   0.000074
  200  H  5 XX   -0.000003  -0.000028  -0.000004   0.000197  -0.000172
  201  H  5 YY    0.000109   0.000229  -0.000415   0.000800  -0.000234
  202  H  5 ZZ   -0.000106  -0.000201   0.000419  -0.000997   0.000405
  203  H  5 XY    0.000117   0.000342  -0.000699   0.001412  -0.000786
  204  H  5 XZ   -0.000000  -0.000009  -0.000001  -0.000110   0.000029
  205  H  5 YZ   -0.000010  -0.000010   0.000065  -0.000062   0.000052
  206  H  5  S   -0.000279  -0.000221   0.000189  -0.001693  -0.002079
  207  H  5  X   -0.000124   0.001568  -0.000771  -0.002441  -0.001355
  208  H  5  Y    0.000410   0.001634  -0.001391  -0.004951   0.002988
  209  H  5  Z    0.000060   0.000237   0.000183   0.000534   0.000348
  210  H  5 XX   -0.000268   0.000469   0.000376   0.000557  -0.000891
  211  H  5 YY    0.000246   0.000046  -0.000400  -0.000914   0.001115
  212  H  5 ZZ    0.000022  -0.000515   0.000024   0.000357  -0.000223
  213  H  5 XY   -0.000047   0.000387   0.000032  -0.000699   0.000191
  214  H  5 XZ   -0.000001   0.000097   0.000095   0.000218   0.000128
  215  H  5 YZ    0.000004   0.000117   0.000108   0.000157   0.000102
  216  H  6  S    0.000778   0.000103   0.000242   0.054518   0.070424
  217  H  6  S    0.000867   0.001286  -0.001625   0.043722   0.056919
  218  H  6  S   -0.003484  -0.000504   0.000119  -0.015828  -0.031609
  219  H  6  X    0.000047  -0.000005   0.000011  -0.007322  -0.010529
  220  H  6  Y   -0.000077  -0.000009  -0.000010   0.000381   0.001237
  221  H  6  Z   -0.000047   0.000002  -0.000021  -0.000073  -0.000095
  222  H  6  X    0.001166   0.000100   0.000583  -0.003922  -0.007128
  223  H  6  Y   -0.000136  -0.000428   0.000181  -0.000327   0.000437
  224  H  6  Z   -0.000076  -0.000087   0.000195   0.000151  -0.000243
  225  H  6 XX   -0.000882  -0.000133  -0.000330   0.001705   0.002324
  226  H  6 YY    0.000439   0.000090   0.000161  -0.000709  -0.001226
  227  H  6 ZZ    0.000444   0.000043   0.000169  -0.000996  -0.001098
  228  H  6 XY    0.000122   0.000036   0.000080  -0.000404  -0.000120
  229  H  6 XZ   -0.000048  -0.000006  -0.000032   0.000109   0.000218
  230  H  6 YZ   -0.000021  -0.000000  -0.000026  -0.000064  -0.000021
  231  H  6  S    0.000373  -0.000146  -0.000042  -0.001677   0.000352
  232  H  6  X    0.002598   0.000791  -0.000278   0.005530   0.017138
  233  H  6  Y   -0.000225  -0.000486   0.000323   0.000399  -0.001910
  234  H  6  Z   -0.000063  -0.000004   0.000299   0.000541  -0.000267
  235  H  6 XX   -0.000442  -0.000114   0.000164  -0.001084  -0.002915
  236  H  6 YY    0.000093  -0.000097   0.000152   0.000711   0.001394
  237  H  6 ZZ    0.000349   0.000212  -0.000317   0.000372   0.001520
  238  H  6 XY   -0.000097   0.000340  -0.000532  -0.000357   0.000763
  239  H  6 XZ    0.000010   0.000030  -0.000203  -0.000246   0.000026
  240  H  6 YZ    0.000003  -0.000007   0.000037   0.000108   0.000049
  241  H  7  S   -0.000259   0.000695   0.000385   0.053254  -0.055308
  242  H  7  S   -0.000077   0.000410  -0.001368   0.041767  -0.051367
  243  H  7  S   -0.000319  -0.000248  -0.001180  -0.004083  -0.002865
  244  H  7  X    0.000000  -0.000019  -0.000026   0.003329  -0.003538
  245  H  7  Y    0.000044  -0.000113  -0.000082   0.004846  -0.005073
  246  H  7  Z   -0.000006   0.000053   0.000061  -0.004814   0.005236
  247  H  7  X    0.000079  -0.000268  -0.000286   0.002368  -0.003580
  248  H  7  Y    0.000046  -0.000826  -0.000761   0.002389  -0.004658
  249  H  7  Z   -0.000133   0.000454   0.000574  -0.003310   0.005065
  250  H  7 XX   -0.000048   0.000170   0.000132  -0.000221   0.000361
  251  H  7 YY    0.000023  -0.000094  -0.000065  -0.000039   0.000031
  252  H  7 ZZ    0.000025  -0.000076  -0.000067   0.000260  -0.000391
  253  H  7 XY    0.000126  -0.000390  -0.000227   0.000928  -0.001137
  254  H  7 XZ   -0.000150   0.000446   0.000268  -0.000912   0.001113
  255  H  7 YZ   -0.000205   0.000593   0.000342  -0.001212   0.001487
  256  H  7  S    0.000150  -0.000179  -0.000053   0.000124   0.000437
  257  H  7  X    0.000074  -0.000185  -0.000235  -0.001590   0.000907
  258  H  7  Y   -0.000266  -0.000074  -0.000460  -0.002167   0.000268
  259  H  7  Z   -0.000060   0.000155   0.000219   0.000952  -0.000246
  260  H  7 XX    0.000011   0.000026  -0.000006  -0.000078   0.000045
  261  H  7 YY   -0.000061  -0.000018  -0.000011  -0.000017  -0.000046
  262  H  7 ZZ    0.000050  -0.000008   0.000017   0.000095   0.000002
  263  H  7 XY    0.000084  -0.000175  -0.000085  -0.000560   0.000616
  264  H  7 XZ   -0.000001   0.000024  -0.000013   0.000027   0.000006
  265  H  7 YZ    0.000023   0.000202   0.000117   0.000624  -0.000548
  266  H  8  S   -0.000116  -0.000432   0.000705   0.053251  -0.022330
  267  H  8  S   -0.001122  -0.000441  -0.000772   0.041641  -0.021368
  268  H  8  S   -0.000470  -0.000388  -0.001099  -0.004153   0.000923
  269  H  8  X   -0.000002  -0.000061   0.000128  -0.005859   0.002483
  270  H  8  Y   -0.000006  -0.000032   0.000037   0.000460  -0.000122
  271  H  8  Z    0.000007  -0.000015   0.000079  -0.004812   0.002090
  272  H  8  X   -0.000018  -0.000263   0.001138  -0.003217   0.001970
  273  H  8  Y   -0.000053  -0.000003   0.000222   0.000850  -0.000153
  274  H  8  Z    0.000118  -0.000199   0.000708  -0.003285   0.002437
  275  H  8 XX    0.000056   0.000180  -0.000334   0.000611  -0.000273
  276  H  8 YY   -0.000054  -0.000221   0.000431  -0.000870   0.000451
  277  H  8 ZZ   -0.000002   0.000041  -0.000096   0.000259  -0.000178
  278  H  8 XY   -0.000021  -0.000047   0.000049  -0.000371   0.000116
  279  H  8 XZ    0.000117   0.000435  -0.000767   0.001502  -0.000733
  280  H  8 YZ   -0.000010  -0.000048   0.000100  -0.000183   0.000044
  281  H  8  S    0.000027   0.000191  -0.000139   0.000172   0.000914
  282  H  8  X    0.000153   0.000199   0.000512   0.002700  -0.000768
  283  H  8  Y    0.000023   0.000230  -0.000035  -0.000299   0.000676
  284  H  8  Z    0.000061  -0.000076   0.000261   0.000934   0.000105
  285  H  8 XX    0.000037   0.000059  -0.000140  -0.000458   0.000377
  286  H  8 YY   -0.000034  -0.000110   0.000128   0.000359  -0.000129
  287  H  8 ZZ   -0.000002   0.000051   0.000013   0.000100  -0.000248
  288  H  8 XY    0.000012  -0.000090   0.000062   0.000315  -0.000055
  289  H  8 XZ    0.000071   0.000037  -0.000193  -0.000557   0.000310
  290  H  8 YZ    0.000014   0.000007  -0.000104  -0.000297  -0.000183
  291  H  9  S    0.000785   0.000165   0.000232   0.053262   0.077630
  292  H  9  S    0.000225  -0.000987  -0.001003   0.041582   0.072702
  293  H  9  S   -0.000268  -0.000454  -0.001125  -0.004233   0.001919
  294  H  9  X   -0.000103  -0.000030  -0.000033   0.002533   0.003761
  295  H  9  Y    0.000084   0.000029   0.000045  -0.005305  -0.007811
  296  H  9  Z    0.000059   0.000024   0.000050  -0.004812  -0.007325
  297  H  9  X   -0.000600  -0.000120  -0.000475   0.000849   0.003087
  298  H  9  Y    0.000709   0.000228   0.000506  -0.003193  -0.007192
  299  H  9  Z    0.000543   0.000294   0.000417  -0.003283  -0.007493
  300  H  9 XX    0.000297   0.000062   0.000100  -0.000778  -0.001322
  301  H  9 YY   -0.000209  -0.000030  -0.000054   0.000519   0.000753
  302  H  9 ZZ   -0.000088  -0.000032  -0.000046   0.000260   0.000569
  303  H  9 XY    0.000365   0.000082   0.000147  -0.000554  -0.001037
  304  H  9 XZ    0.000326   0.000066   0.000101  -0.000592  -0.001060
  305  H  9 YZ   -0.000766  -0.000164  -0.000260   0.001392   0.002362
  306  H  9  S   -0.000225  -0.000069   0.000023   0.000166  -0.001364
  307  H  9  X    0.000091  -0.000015  -0.000375  -0.001113   0.000426
  308  H  9  Y    0.000213   0.000158   0.000393   0.002512   0.001929
  309  H  9  Z    0.000196   0.000127   0.000157   0.000909   0.000140
  310  H  9 XX    0.000162   0.000059  -0.000008   0.000380   0.000531
  311  H  9 YY   -0.000137  -0.000039  -0.000032  -0.000490  -0.000780
  312  H  9 ZZ   -0.000025  -0.000020   0.000041   0.000110   0.000249
  313  H  9 XY    0.000109  -0.000008   0.000046   0.000261   0.000490
  314  H  9 XZ    0.000155  -0.000004   0.000119   0.000534   0.000474
  315  H  9 YZ   -0.000114   0.000022  -0.000061  -0.000334  -0.000633

                      6          7          8          9         10
                   -1.0080    -0.5578    -0.5267    -0.5267    -0.4055
                     A          A          A          A          A   
    1  O  1  S    0.011477   0.000094   0.000152   0.000330   0.000724
    2  O  1  S   -0.289462  -0.007078  -0.015987   0.000796  -0.125840
    3  O  1  S   -0.084418  -0.002763  -0.004404   0.000507  -0.037283
    4  O  1  S   -0.170146   0.021972  -0.034535  -0.012045  -0.222143
    5  O  1  X    0.028806   0.027225  -0.014520  -0.034293  -0.136584
    6  O  1  Y   -0.007085   0.153036  -0.174304   0.145090   0.005082
    7  O  1  Z   -0.023341  -0.063930   0.076606  -0.052864   0.122451
    8  O  1  X    0.034513   0.030702  -0.016021  -0.039603  -0.152866
    9  O  1  Y   -0.009895   0.166014  -0.189324   0.157655   0.006934
   10  O  1  Z   -0.027465  -0.067830   0.082239  -0.057729   0.136794
   11  O  1  X    0.006293   0.014476  -0.003310  -0.024278  -0.095865
   12  O  1  Y   -0.008532   0.069364  -0.081117   0.071160   0.004332
   13  O  1  Z   -0.006799  -0.022492   0.030697  -0.026812   0.073799
   14  O  1 XX    0.000663  -0.000183  -0.000037   0.000030   0.000435
   15  O  1 YY   -0.001300   0.002448  -0.002512   0.002271  -0.000651
   16  O  1 ZZ    0.000637  -0.002265   0.002549  -0.002301   0.000216
   17  O  1 XY    0.000537  -0.003771   0.004537  -0.004291  -0.000273
   18  O  1 XZ    0.001620   0.002061  -0.002156   0.001060  -0.003364
   19  O  1 YZ    0.001251   0.002983  -0.003271   0.002512  -0.000691
   20  O  1 XX    0.000960  -0.000049  -0.000341  -0.000712   0.002201
   21  O  1 YY   -0.002292   0.003545  -0.003339   0.003010  -0.004219
   22  O  1 ZZ    0.001332  -0.003496   0.003679  -0.002299   0.002018
   23  O  1 XY    0.001825  -0.002237   0.004460  -0.006185  -0.001329
   24  O  1 XZ    0.003618   0.002114  -0.002117   0.001033  -0.005549
   25  O  1 YZ    0.001591   0.002560  -0.003665   0.003587   0.002476
   26  O  1 XXX  -0.000643  -0.000029   0.000040   0.000009   0.000649
   27  O  1 YYY  -0.000613   0.000753  -0.000583   0.000737   0.000283
   28  O  1 ZZZ   0.000329   0.000622  -0.000635   0.000424  -0.000629
   29  O  1 XXY   0.000097  -0.000648   0.000549  -0.000784   0.000313
   30  O  1 XXZ  -0.000167   0.000135  -0.000287   0.000448   0.000606
   31  O  1 YYX   0.000822   0.000034   0.000137  -0.000345  -0.000342
   32  O  1 YYZ  -0.000274  -0.000969   0.001140  -0.001018   0.000238
   33  O  1 ZZX   0.000040   0.000004  -0.000191   0.000333  -0.000529
   34  O  1 ZZY   0.000726  -0.000362   0.000233  -0.000205  -0.000692
   35  O  1 XYZ  -0.000347  -0.000289   0.000366  -0.000161   0.000193
   36  O  1  S   -0.037111   0.013158  -0.023062  -0.007492  -0.081844
   37  O  1  X   -0.003033   0.001237  -0.001576  -0.000689  -0.012658
   38  O  1  Y   -0.004686   0.005588  -0.009655   0.002607  -0.005822
   39  O  1  Z   -0.002001  -0.001647   0.000745  -0.002693   0.005926
   40  O  1 XX   -0.001331  -0.000351  -0.000364  -0.002644  -0.001398
   41  O  1 YY    0.002114  -0.002073   0.002157   0.000372  -0.002170
   42  O  1 ZZ   -0.000783   0.002424  -0.001793   0.002271   0.003568
   43  O  1 XY    0.000425   0.004356  -0.002947   0.000900  -0.003947
   44  O  1 XZ   -0.000806  -0.003584   0.003702  -0.000931   0.002460
   45  O  1 YZ   -0.002049  -0.004208   0.003124  -0.000283   0.004139
   46  O  1 XXX   0.000302  -0.000073  -0.000048  -0.000406  -0.000925
   47  O  1 YYY   0.000722  -0.000096  -0.000211  -0.000015  -0.000129
   48  O  1 ZZZ   0.000045   0.000336  -0.000257   0.000298  -0.000448
   49  O  1 XXY  -0.000753   0.000265  -0.000277   0.000152  -0.001136
   50  O  1 XXZ  -0.000408  -0.000151   0.000234  -0.000252   0.000962
   51  O  1 YYX  -0.000902   0.000131   0.000320   0.000352   0.000782
   52  O  1 YYZ   0.000348  -0.000300   0.000110  -0.000148  -0.000361
   53  O  1 ZZX   0.000497  -0.000033  -0.000256   0.000193   0.000459
   54  O  1 ZZY  -0.000215  -0.000137   0.000560  -0.000132   0.001309
   55  O  1 XYZ   0.000548  -0.000158   0.000410  -0.000648  -0.000024
   56  O  2  S   -0.015275   0.000093  -0.000362  -0.000033   0.000283
   57  O  2  S    0.386256  -0.007077   0.007303  -0.014244  -0.011040
   58  O  2  S    0.112569  -0.002762   0.001762  -0.004067  -0.002794
   59  O  2  S    0.226944   0.021986   0.027781  -0.024038  -0.050118
   60  O  2  X    0.010478  -0.146145   0.014871   0.191267  -0.002651
   61  O  2  Y   -0.035011  -0.052937   0.051260   0.115704  -0.083701
   62  O  2  Z    0.031071  -0.063930   0.007483   0.092776   0.001342
   63  O  2  X    0.010784  -0.159126   0.015117   0.207302  -0.001459
   64  O  2  Y   -0.043008  -0.056419   0.057571   0.126536  -0.095696
   65  O  2  Z    0.036538  -0.067833   0.008881   0.100086   0.000598
   66  O  2  X   -0.002295  -0.067454   0.006900   0.087134  -0.012614
   67  O  2  Y   -0.009682  -0.022148   0.030151   0.061040  -0.053079
   68  O  2  Z    0.008568  -0.022538   0.007883   0.040010  -0.008685
   69  O  2 XX    0.000636  -0.001038   0.000551   0.002061  -0.000630
   70  O  2 YY    0.000190   0.003303  -0.001269  -0.005419   0.001412
   71  O  2 ZZ   -0.000826  -0.002265   0.000718   0.003358  -0.000782
   72  O  2 XY    0.001549   0.003201  -0.001076  -0.004669   0.000527
   73  O  2 XZ    0.002507  -0.003613   0.000388   0.004739   0.000013
   74  O  2 YZ   -0.001002   0.000293   0.000409  -0.000031  -0.000887
   75  O  2 XX    0.000056   0.000970   0.001836   0.001933  -0.002431
   76  O  2 YY    0.001780   0.002528  -0.001986  -0.006276   0.002859
   77  O  2 ZZ   -0.001836  -0.003498   0.000150   0.004343  -0.000428
   78  O  2 XY    0.002365   0.002921  -0.002422  -0.005717   0.000732
   79  O  2 XZ    0.004272  -0.003278   0.001022   0.005478  -0.001122
   80  O  2 YZ   -0.003036   0.000551   0.000779   0.000447  -0.002454
   81  O  2 XXX   0.000303  -0.000200  -0.000160  -0.000101   0.000285
   82  O  2 YYY  -0.000054   0.000447  -0.000203  -0.000458  -0.000092
   83  O  2 ZZZ  -0.000428   0.000621  -0.000050  -0.000762  -0.000134
   84  O  2 XXY  -0.000307  -0.000785   0.000470   0.001054  -0.000083
   85  O  2 XXZ   0.000655  -0.000909   0.000140   0.001301  -0.000085
   86  O  2 YYX  -0.001283  -0.000042   0.000171   0.000233  -0.000382
   87  O  2 YYZ  -0.000081   0.000076  -0.000073  -0.000279   0.000264
   88  O  2 ZZX   0.000877   0.000311   0.000044  -0.000098  -0.000001
   89  O  2 ZZY   0.000380   0.000185  -0.000197  -0.000440   0.000207
   90  O  2 XYZ  -0.000161  -0.000407   0.000300   0.000785  -0.000391
   91  O  2  S    0.045640   0.013328   0.018159  -0.016451  -0.033998
   92  O  2  X   -0.005638  -0.005546  -0.002948   0.008946   0.006103
   93  O  2  Y   -0.003208  -0.001770  -0.000089   0.003992  -0.004393
   94  O  2  Z    0.001680  -0.001656   0.001971   0.001986   0.000711
   95  O  2 XX   -0.002233   0.001619   0.000087  -0.000726   0.003740
   96  O  2 YY    0.001265  -0.004029   0.000989   0.003398  -0.002570
   97  O  2 ZZ    0.000968   0.002409  -0.001076  -0.002672  -0.001169
   98  O  2 XY   -0.004829  -0.003039  -0.002281   0.001813   0.000676
   99  O  2 XZ   -0.002743   0.005406   0.001663  -0.004283  -0.005071
  100  O  2 YZ   -0.000135  -0.000994  -0.000244   0.001758  -0.000414
  101  O  2 XXX  -0.000613  -0.000166   0.000263   0.000161  -0.000515
  102  O  2 YYY  -0.000600  -0.000193  -0.000003   0.000442   0.000079
  103  O  2 ZZZ  -0.000118   0.000338  -0.000129  -0.000373   0.000176
  104  O  2 XXY   0.001495   0.000220  -0.000046  -0.000039  -0.000239
  105  O  2 XXZ  -0.000688  -0.000385   0.000347   0.000721  -0.000646
  106  O  2 YYX   0.000875   0.000089  -0.000517   0.000104   0.000975
  107  O  2 YYZ   0.000846  -0.000068  -0.000173  -0.000221   0.000410
  108  O  2 ZZX  -0.000052   0.000134   0.000165  -0.000320  -0.000285
  109  O  2 ZZY  -0.000690   0.000039   0.000050  -0.000554   0.000133
  110  O  2 XYZ  -0.000168   0.000003  -0.000191  -0.000419   0.000333
  111  O  3  S    0.003797   0.000092   0.000210  -0.000298  -0.001006
  112  O  3  S   -0.096760  -0.007080   0.008683   0.013446   0.136891
  113  O  3  S   -0.028142  -0.002765   0.002639   0.003559   0.040084
  114  O  3  S   -0.056684   0.022216   0.006948   0.036163   0.271948
  115  O  3  X   -0.004541   0.118928   0.195507   0.053034  -0.146518
  116  O  3  Y   -0.005174  -0.100103  -0.086966  -0.064939  -0.155306
  117  O  3  Z   -0.007727  -0.063935  -0.084083  -0.039908  -0.123800
  118  O  3  X   -0.006027   0.128437   0.213373   0.056897  -0.166064
  119  O  3  Y   -0.005895  -0.109589  -0.092830  -0.071718  -0.175528
  120  O  3  Z   -0.009063  -0.067825  -0.091110  -0.042347  -0.137420
  121  O  3  X    0.000951   0.052890   0.098295   0.022606  -0.103980
  122  O  3  Y   -0.001586  -0.047248  -0.034363  -0.030359  -0.096670
  123  O  3  Z   -0.001722  -0.022435  -0.038600  -0.013157  -0.065222
  124  O  3 XX   -0.000251   0.004619   0.006916   0.002122  -0.001122
  125  O  3 YY    0.000062  -0.002354  -0.003649  -0.001065   0.000556
  126  O  3 ZZ    0.000189  -0.002265  -0.003267  -0.001057   0.000566
  127  O  3 XY    0.000284   0.000570   0.001403   0.000381  -0.001436
  128  O  3 XZ    0.000112   0.001553   0.002303   0.000697  -0.001846
  129  O  3 YZ   -0.000643  -0.003276  -0.003634  -0.001946  -0.003714
  130  O  3 XX   -0.000278   0.004327   0.008797   0.001789  -0.000472
  131  O  3 YY   -0.000225  -0.000831  -0.004961   0.000252   0.002057
  132  O  3 ZZ    0.000503  -0.003496  -0.003837  -0.002041  -0.001585
  133  O  3 XY   -0.000395  -0.000682   0.001431   0.000015  -0.006151
  134  O  3 XZ   -0.000067   0.001159   0.003301   0.000535  -0.007599
  135  O  3 YZ   -0.001282  -0.003104  -0.004162  -0.001827  -0.003838
  136  O  3 XXX  -0.000262   0.000150   0.000452   0.000009  -0.000926
  137  O  3 YYY   0.000145   0.000452   0.000869   0.000052   0.000473
  138  O  3 ZZZ   0.000099   0.000621   0.000685   0.000338   0.000762
  139  O  3 XXY  -0.000024  -0.000783  -0.000981  -0.000121   0.000068
  140  O  3 XXZ   0.000005  -0.000476  -0.000713  -0.000175  -0.000068
  141  O  3 YYX   0.000192   0.000114  -0.000160   0.000074   0.000729
  142  O  3 YYZ  -0.000138  -0.000357  -0.000206  -0.000278  -0.000955
  143  O  3 ZZX   0.000159  -0.000316  -0.000447  -0.000086   0.000514
  144  O  3 ZZY  -0.000171   0.000177  -0.000185   0.000051  -0.000702
  145  O  3 XYZ   0.000061   0.000696   0.001153   0.000369  -0.000456
  146  O  3  S   -0.008513   0.013691   0.005029   0.024054   0.115643
  147  O  3  X   -0.003086   0.004311   0.006071   0.005319  -0.002039
  148  O  3  Y   -0.001656  -0.003973  -0.003681  -0.005055  -0.021430
  149  O  3  Z    0.000334  -0.001601  -0.002726   0.000716  -0.006652
  150  O  3 XX    0.002287  -0.004916  -0.002748  -0.002693  -0.000494
  151  O  3 YY   -0.002111   0.002485  -0.000098   0.002283   0.002892
  152  O  3 ZZ   -0.000176   0.002432   0.002846   0.000411  -0.002398
  153  O  3 XY   -0.002233  -0.001314  -0.001804   0.000797   0.001142
  154  O  3 XZ   -0.000128  -0.001859  -0.000228  -0.000853  -0.005238
  155  O  3 YZ    0.000610   0.005218   0.003186   0.003653   0.008328
  156  O  3 XXX   0.000170  -0.000034   0.000115   0.000555   0.001856
  157  O  3 YYY   0.000369  -0.000230  -0.000094  -0.000103  -0.001518
  158  O  3 ZZZ   0.000072   0.000338   0.000386   0.000075   0.000276
  159  O  3 XXY  -0.000520   0.000207   0.000185   0.000034   0.000672
  160  O  3 XXZ  -0.000085  -0.000146   0.000354  -0.000013  -0.000383
  161  O  3 YYX  -0.000038   0.000150   0.000338  -0.000317  -0.001562
  162  O  3 YYZ  -0.000011  -0.000308  -0.000872  -0.000088   0.000013
  163  O  3 ZZX  -0.000190  -0.000104  -0.000491  -0.000428  -0.000928
  164  O  3 ZZY   0.000024   0.000102  -0.000059   0.000104   0.001364
  165  O  3 XYZ  -0.000202   0.000154   0.000308  -0.000012  -0.001031
  166  H  4  S   -0.054315   0.075763  -0.085673   0.087098   0.038214
  167  H  4  S   -0.042896   0.114779  -0.124383   0.130369   0.084853
  168  H  4  S    0.025271   0.020469  -0.019675   0.028657   0.044561
  169  H  4  X   -0.003140   0.005651  -0.005630   0.004264  -0.002691
  170  H  4  Y    0.007047  -0.005444   0.008001  -0.007473  -0.000703
  171  H  4  Z    0.000079  -0.002034   0.002253  -0.001912   0.002913
  172  H  4  X   -0.001647   0.013887  -0.011785   0.008371  -0.004720
  173  H  4  Y    0.004374  -0.006234   0.016954  -0.013883  -0.006417
  174  H  4  Z    0.000184  -0.003935   0.005298  -0.003941   0.007555
  175  H  4 XX    0.000462  -0.000178   0.000112  -0.001032  -0.001703
  176  H  4 YY   -0.001331   0.002391  -0.002059   0.003205   0.002867
  177  H  4 ZZ    0.000868  -0.002213   0.001948  -0.002173  -0.001164
  178  H  4 XY    0.001235  -0.002524   0.004028  -0.002966   0.000125
  179  H  4 XZ    0.000070  -0.000543   0.000614  -0.000532   0.000477
  180  H  4 YZ   -0.000145   0.000631  -0.001168   0.000731  -0.001381
  181  H  4  S   -0.001406  -0.003878   0.002636  -0.003218  -0.005026
  182  H  4  X    0.005898   0.000255   0.001507  -0.003970  -0.008020
  183  H  4  Y   -0.009279  -0.002441   0.000048  -0.003463  -0.013258
  184  H  4  Z    0.000347   0.001628   0.001367  -0.000423   0.009741
  185  H  4 XX   -0.000240   0.001645  -0.001289  -0.000217  -0.001629
  186  H  4 YY    0.001251  -0.000872   0.001480   0.001494   0.002546
  187  H  4 ZZ   -0.001010  -0.000773  -0.000191  -0.001277  -0.000917
  188  H  4 XY   -0.001653   0.000341   0.002248   0.001063   0.001852
  189  H  4 XZ    0.000048   0.000557   0.000588  -0.000326  -0.000110
  190  H  4 YZ   -0.000093   0.000639  -0.001816   0.001427  -0.002297
  191  H  5  S    0.067669   0.075763  -0.032596  -0.117745   0.027765
  192  H  5  S    0.055722   0.114711  -0.050746  -0.172754   0.039395
  193  H  5  S   -0.029636   0.020461  -0.015155  -0.031133   0.042239
  194  H  5  X    0.006442   0.001888  -0.001702  -0.005731   0.004137
  195  H  5  Y    0.008482   0.007616  -0.001998  -0.011400   0.002989
  196  H  5  Z   -0.000086  -0.002034   0.000530   0.002907  -0.000021
  197  H  5  X    0.003870  -0.001538  -0.002405  -0.011506   0.013835
  198  H  5  Y    0.006699   0.015123  -0.002962  -0.023231   0.007144
  199  H  5  Z   -0.000235  -0.003929   0.000765   0.006552   0.000100
  200  H  5 XX   -0.000386  -0.000144  -0.000684   0.001342  -0.000178
  201  H  5 YY    0.001420   0.002356  -0.000225  -0.004113   0.000417
  202  H  5 ZZ   -0.001034  -0.002212   0.000909   0.002771  -0.000239
  203  H  5 XY    0.001665   0.002546  -0.001571  -0.004482   0.000730
  204  H  5 XZ   -0.000131  -0.000275  -0.000034   0.000793  -0.000340
  205  H  5 YZ   -0.000175  -0.000785   0.000158   0.001378  -0.000364
  206  H  5  S   -0.000796  -0.003899   0.001470   0.003919   0.008312
  207  H  5  X   -0.012618   0.001880  -0.003921  -0.003084  -0.003924
  208  H  5  Y   -0.014352   0.001369   0.000821   0.002053   0.000080
  209  H  5  Z   -0.000099   0.001642  -0.000315   0.001399  -0.002084
  210  H  5 XX   -0.000807   0.000042  -0.002871   0.001209   0.005944
  211  H  5 YY   -0.000822   0.000744   0.001656  -0.001680  -0.003033
  212  H  5 ZZ    0.001629  -0.000786   0.001215   0.000472  -0.002911
  213  H  5 XY   -0.002823  -0.001416  -0.000428   0.000066   0.002936
  214  H  5 XZ    0.000104  -0.000825   0.000292   0.001638   0.000240
  215  H  5 YZ    0.000006   0.000165   0.000156   0.001723  -0.000743
  216  H  6  S   -0.013348   0.075770   0.118264   0.030644  -0.065982
  217  H  6  S   -0.012808   0.114723   0.174955   0.042422  -0.124176
  218  H  6  S    0.004428   0.020248   0.034526   0.002448  -0.086700
  219  H  6  X    0.002892  -0.007540  -0.012321  -0.004135   0.003921
  220  H  6  Y   -0.000533  -0.002171  -0.000400  -0.000780  -0.004773
  221  H  6  Z    0.000008  -0.002034  -0.002783  -0.000995  -0.002893
  222  H  6  X    0.003132  -0.012313  -0.024280  -0.009662   0.016254
  223  H  6  Y    0.000743  -0.008909  -0.001128  -0.001344  -0.015672
  224  H  6  Z    0.000051  -0.003933  -0.006055  -0.002610  -0.007657
  225  H  6 XX   -0.000409   0.003640   0.006050   0.001740  -0.002443
  226  H  6 YY    0.000243  -0.001429  -0.003196  -0.001142   0.001042
  227  H  6 ZZ    0.000166  -0.002212  -0.002854  -0.000598   0.001401
  228  H  6 XY   -0.000349  -0.000022  -0.000086   0.001122   0.002414
  229  H  6 XZ   -0.000057   0.000818   0.001437   0.000691   0.000951
  230  H  6 YZ    0.000014   0.000154   0.000056  -0.000093  -0.000166
  231  H  6  S    0.002228  -0.003862  -0.004143  -0.000705  -0.003278
  232  H  6  X   -0.007755  -0.002140  -0.000421   0.001231   0.005504
  233  H  6  Y    0.004198   0.000993   0.005105  -0.001454  -0.010073
  234  H  6  Z   -0.000257   0.001648  -0.001058  -0.000964  -0.007641
  235  H  6 XX    0.000817  -0.000520   0.000678   0.000625  -0.001527
  236  H  6 YY   -0.000197   0.001289   0.000336  -0.001436  -0.002302
  237  H  6 ZZ   -0.000620  -0.000769  -0.001014   0.000812   0.003829
  238  H  6 XY   -0.001476   0.001085   0.000044   0.002872   0.008948
  239  H  6 XZ    0.000163   0.000268   0.002141   0.000910   0.001407
  240  H  6 YZ   -0.000096  -0.000798  -0.000570  -0.000127  -0.001812
  241  H  7  S   -0.057709  -0.088966   0.096593  -0.066718   0.066552
  242  H  7  S   -0.054390  -0.146643   0.158671  -0.098817   0.131362
  243  H  7  S   -0.000619  -0.044654   0.050540  -0.028192   0.046762
  244  H  7  X   -0.003598  -0.005419   0.006129  -0.005333   0.000291
  245  H  7  Y   -0.005342  -0.004240   0.004060  -0.002063   0.005729
  246  H  7  Z    0.005437   0.007273  -0.007288   0.004819  -0.002310
  247  H  7  X   -0.003361  -0.012162   0.013261  -0.010862   0.002856
  248  H  7  Y   -0.004573  -0.009682   0.008652  -0.001903   0.017009
  249  H  7  Z    0.005754   0.015118  -0.015229   0.007743  -0.008038
  250  H  7 XX    0.000420   0.000614  -0.000456  -0.000199  -0.001124
  251  H  7 YY    0.000012   0.000471  -0.000573   0.000713   0.001260
  252  H  7 ZZ   -0.000432  -0.001085   0.001029  -0.000515  -0.000136
  253  H  7 XY   -0.001142  -0.002212   0.002337  -0.001743   0.001244
  254  H  7 XZ    0.001110   0.002992  -0.003212   0.002487  -0.000995
  255  H  7 YZ    0.001567   0.003076  -0.003105   0.001749  -0.002395
  256  H  7  S    0.001296   0.003232  -0.002986   0.001530   0.000929
  257  H  7  X    0.001648  -0.000938   0.001842  -0.001368  -0.002781
  258  H  7  Y    0.000544  -0.000668  -0.001184   0.002889  -0.000046
  259  H  7  Z    0.000001   0.000320   0.000262   0.000132   0.006585
  260  H  7 XX    0.000071  -0.000481   0.000654  -0.000987  -0.000186
  261  H  7 YY    0.000221   0.001003  -0.001151   0.001260   0.001152
  262  H  7 ZZ   -0.000292  -0.000522   0.000497  -0.000273  -0.000965
  263  H  7 XY    0.000684  -0.000231   0.000455  -0.000647   0.001074
  264  H  7 XZ   -0.000360   0.000534  -0.000848   0.000859  -0.000146
  265  H  7 YZ   -0.000520   0.000382  -0.000457   0.000040  -0.000463
  266  H  8  S    0.076754  -0.088967   0.009489   0.117011   0.000669
  267  H  8  S    0.071594  -0.146547   0.006247   0.186775   0.018600
  268  H  8  S    0.002734  -0.044575  -0.000878   0.057782   0.014388
  269  H  8  X   -0.008549   0.006380  -0.000567  -0.007923  -0.000274
  270  H  8  Y    0.000679  -0.002573   0.001468   0.004633  -0.002382
  271  H  8  Z   -0.007252   0.007272  -0.000530  -0.008721  -0.000376
  272  H  8  X   -0.007838   0.014462   0.000934  -0.015778  -0.004075
  273  H  8  Y    0.000976  -0.005679   0.003737   0.010420  -0.005306
  274  H  8  Z   -0.007245   0.015106   0.000910  -0.017055  -0.003052
  275  H  8 XX    0.001012  -0.001152   0.000107   0.001457   0.000114
  276  H  8 YY   -0.001566   0.002237  -0.000039  -0.002606  -0.000340
  277  H  8 ZZ    0.000554  -0.001085  -0.000069   0.001149   0.000225
  278  H  8 XY   -0.000532   0.001034  -0.000536  -0.001726   0.000701
  279  H  8 XZ    0.002551  -0.004159   0.000241   0.005099   0.000164
  280  H  8 YZ   -0.000279   0.001053  -0.000493  -0.001705   0.000578
  281  H  8  S   -0.001036   0.003250   0.000173  -0.003367  -0.002888
  282  H  8  X    0.001254   0.001061   0.001530   0.001011  -0.004481
  283  H  8  Y   -0.001149  -0.000464   0.001173   0.003212  -0.004340
  284  H  8  Z    0.000213   0.000296  -0.000249   0.000188  -0.001805
  285  H  8 XX   -0.000731   0.000449  -0.000007  -0.000409  -0.000629
  286  H  8 YY    0.000585   0.000067   0.000017  -0.000153   0.000753
  287  H  8 ZZ    0.000146  -0.000516  -0.000010   0.000563  -0.000124
  288  H  8 XY    0.000440   0.000854  -0.000685  -0.001700   0.000798
  289  H  8 XZ   -0.000727  -0.000607  -0.000008   0.000949  -0.000012
  290  H  8 YZ   -0.000215   0.000265  -0.000370  -0.000800   0.000406
  291  H  9  S   -0.019037  -0.088972  -0.106074  -0.050288  -0.067226
  292  H  9  S   -0.017306  -0.146718  -0.164865  -0.088018  -0.149723
  293  H  9  S   -0.002203  -0.044825  -0.049546  -0.029713  -0.061015
  294  H  9  X   -0.000860  -0.000963   0.000537  -0.000830  -0.007015
  295  H  9  Y    0.001956   0.006814   0.008561   0.003529   0.002159
  296  H  9  Z    0.001816   0.007274   0.007817   0.003902   0.002683
  297  H  9  X   -0.000793  -0.002323   0.002842  -0.002646  -0.019918
  298  H  9  Y    0.002102   0.015410   0.016873   0.008534   0.011808
  299  H  9  Z    0.001513   0.015132   0.014318   0.009325   0.011030
  300  H  9 XX    0.000351   0.002167   0.002700   0.001093  -0.000034
  301  H  9 YY   -0.000228  -0.001082  -0.001740  -0.000459   0.000122
  302  H  9 ZZ   -0.000123  -0.001085  -0.000960  -0.000634  -0.000088
  303  H  9 XY    0.000248   0.001179   0.000914   0.000754   0.002390
  304  H  9 XZ    0.000232   0.001169   0.000776   0.000802   0.002157
  305  H  9 YZ   -0.000606  -0.004132  -0.004789  -0.002241  -0.001906
  306  H  9  S   -0.000289   0.003227   0.002840   0.001832   0.001974
  307  H  9  X   -0.000006  -0.000147   0.003754   0.000091  -0.007370
  308  H  9  Y    0.000048   0.001209   0.000243   0.001025  -0.000719
  309  H  9  Z   -0.000192   0.000312  -0.000031  -0.000301  -0.004817
  310  H  9 XX   -0.000253   0.000803   0.001546   0.000312  -0.001023
  311  H  9 YY    0.000111  -0.000293  -0.001059  -0.000024  -0.000080
  312  H  9 ZZ    0.000142  -0.000510  -0.000487  -0.000288   0.001102
  313  H  9 XY   -0.000026  -0.000617  -0.001029  -0.000180   0.000919
  314  H  9 XZ   -0.000282   0.000071  -0.000354   0.000175   0.000675
  315  H  9 YZ   -0.000052  -0.000659  -0.001148  -0.000459  -0.000143

                     11         12         13         14         15
                   -0.4055    -0.3807    -0.3322    -0.3157    -0.3157
                     A          A          A          A          A   
    1  O  1  S    0.000745  -0.000662  -0.000256  -0.000207  -0.000162
    2  O  1  S   -0.085410   0.099809  -0.002858   0.006311   0.003729
    3  O  1  S   -0.024756   0.029612  -0.001256   0.001444   0.000963
    4  O  1  S   -0.185942   0.190423   0.021360   0.049940   0.026048
    5  O  1  X   -0.161037   0.121542   0.162277  -0.096217  -0.134877
    6  O  1  Y    0.053915  -0.079283   0.016581  -0.098844  -0.060066
    7  O  1  Z    0.072253  -0.128242   0.129046  -0.165407  -0.152780
    8  O  1  X   -0.183135   0.136388   0.189703  -0.114932  -0.159924
    9  O  1  Y    0.060713  -0.090203   0.021611  -0.114881  -0.071338
   10  O  1  Z    0.079691  -0.146084   0.151986  -0.193200  -0.178852
   11  O  1  X   -0.101206   0.082618   0.147722  -0.102210  -0.127520
   12  O  1  Y    0.045637  -0.053403   0.024785  -0.077477  -0.049090
   13  O  1  Z    0.032668  -0.091974   0.115782  -0.137473  -0.125690
   14  O  1 XX    0.000836  -0.000286  -0.002730   0.002306   0.002585
   15  O  1 YY   -0.000057   0.000218   0.000187  -0.000220  -0.000222
   16  O  1 ZZ   -0.000778   0.000067   0.002543  -0.002085  -0.002363
   17  O  1 XY   -0.001641   0.001568   0.000666   0.000910   0.000328
   18  O  1 XZ   -0.002837   0.002924   0.000220   0.000815   0.000449
   19  O  1 YZ    0.000100  -0.000669   0.000710  -0.001344  -0.001036
   20  O  1 XX    0.002408  -0.002442  -0.007092   0.003655   0.006058
   21  O  1 YY   -0.003078   0.004565   0.001899   0.002380   0.000037
   22  O  1 ZZ    0.000669  -0.002124   0.005193  -0.006035  -0.006095
   23  O  1 XY   -0.004240   0.002291   0.002186   0.001949   0.000656
   24  O  1 XZ   -0.005018   0.005601   0.000862   0.000771   0.000186
   25  O  1 YZ    0.003958  -0.004777   0.001363  -0.004842  -0.003551
   26  O  1 XXX   0.000588  -0.000726  -0.000027  -0.000252  -0.000077
   27  O  1 YYY   0.000257  -0.000496   0.000910  -0.000842  -0.000946
   28  O  1 ZZZ  -0.000517   0.000520   0.000185  -0.000219  -0.000192
   29  O  1 XXY   0.000174  -0.000267  -0.000406   0.000109   0.000347
   30  O  1 XXZ   0.000892  -0.000652  -0.001091   0.000637   0.000862
   31  O  1 YYX  -0.000691   0.000325   0.000959  -0.000630  -0.000805
   32  O  1 YYZ  -0.000198  -0.000046   0.000842  -0.000343  -0.000604
   33  O  1 ZZX  -0.000099   0.000649  -0.000923   0.000968   0.000907
   34  O  1 ZZY  -0.000519   0.000933  -0.000814   0.001021   0.000922
   35  O  1 XYZ   0.000137   0.000164  -0.000927   0.001047   0.001104
   36  O  1  S   -0.086540   0.060946   0.017755   0.018961   0.001400
   37  O  1  X   -0.015286   0.009328   0.028230  -0.019795  -0.019345
   38  O  1  Y   -0.007085  -0.007291   0.006398  -0.012446  -0.011478
   39  O  1  Z    0.004268  -0.012099   0.016722  -0.024269  -0.021694
   40  O  1 XX   -0.002546  -0.000257   0.000524  -0.005482  -0.005468
   41  O  1 YY    0.001833   0.005944  -0.001716   0.006543   0.005999
   42  O  1 ZZ    0.000713  -0.005687   0.001192  -0.001061  -0.000530
   43  O  1 XY    0.001009   0.001366   0.002133  -0.003855  -0.002909
   44  O  1 XZ    0.003909  -0.003733   0.006307  -0.006546  -0.001909
   45  O  1 YZ    0.007669  -0.005721   0.001568  -0.004776  -0.001417
   46  O  1 XXX  -0.001474   0.000919   0.000409   0.000482  -0.000358
   47  O  1 YYY  -0.000013   0.000265  -0.000410   0.000748   0.000411
   48  O  1 ZZZ  -0.000058   0.000598  -0.000507   0.000415   0.000189
   49  O  1 XXY  -0.000945   0.000580   0.000593  -0.001147  -0.000340
   50  O  1 XXZ   0.000435  -0.001209   0.000411  -0.000847  -0.000205
   51  O  1 YYX   0.001417  -0.000898   0.000369  -0.000874  -0.000491
   52  O  1 YYZ  -0.000356   0.000407   0.000269   0.000291  -0.000049
   53  O  1 ZZX   0.000560  -0.000335  -0.000917   0.000228   0.000971
   54  O  1 ZZY   0.000963  -0.000935  -0.000043   0.000143  -0.000211
   55  O  1 XYZ  -0.000811  -0.000105   0.000928   0.000079  -0.000038
   56  O  2  S   -0.001000  -0.000664  -0.000259  -0.000036   0.000261
   57  O  2  S    0.151684   0.099805  -0.002864   0.000077  -0.007330
   58  O  2  S    0.044665   0.029606  -0.001261   0.000114  -0.001729
   59  O  2  S    0.285495   0.191142   0.021899  -0.002453  -0.056587
   60  O  2  X   -0.072243   0.007889  -0.095485   0.036613  -0.175529
   61  O  2  Y    0.187851   0.144912   0.132237  -0.058215   0.072750
   62  O  2  Z   -0.142169  -0.128241   0.129031  -0.049627   0.219645
   63  O  2  X   -0.080487   0.009922  -0.113560   0.044289  -0.206813
   64  O  2  Y    0.212122   0.163191   0.153437  -0.068023   0.087885
   65  O  2  Z   -0.158305  -0.146059   0.151983  -0.058322   0.256735
   66  O  2  X   -0.043865   0.004869  -0.095555   0.032959  -0.155670
   67  O  2  Y    0.128977   0.098046   0.115384  -0.049515   0.086149
   68  O  2  Z   -0.080230  -0.091857   0.115806  -0.040144   0.181790
   69  O  2 XX    0.001038   0.001268  -0.000043   0.000082  -0.001310
   70  O  2 YY   -0.001241  -0.001336  -0.002500   0.000922  -0.001677
   71  O  2 ZZ    0.000202   0.000068   0.002543  -0.001004   0.002987
   72  O  2 XY    0.000164  -0.000533   0.001125  -0.000498   0.002272
   73  O  2 XZ   -0.002640  -0.000883  -0.000724   0.000204  -0.000990
   74  O  2 YZ    0.003477   0.002867  -0.000164   0.000097  -0.001647
   75  O  2 XX    0.005571   0.004536   0.001295  -0.000323  -0.004621
   76  O  2 YY   -0.003486  -0.002403  -0.006479   0.002582  -0.003655
   77  O  2 ZZ   -0.002085  -0.002133   0.005184  -0.002259   0.008276
   78  O  2 XY    0.002523   0.002377   0.003423  -0.002088   0.003065
   79  O  2 XZ   -0.000086   0.001350  -0.001607   0.000674  -0.004802
   80  O  2 YZ    0.008395   0.007236   0.000063   0.000133  -0.003639
   81  O  2 XXX  -0.000014   0.000271  -0.001194   0.000453  -0.001478
   82  O  2 YYY   0.000101  -0.000028   0.000674  -0.000303   0.000700
   83  O  2 ZZZ   0.000803   0.000519   0.000184  -0.000057   0.000286
   84  O  2 XXY  -0.000146  -0.000059  -0.000513   0.000289  -0.000493
   85  O  2 XXZ  -0.000500  -0.000073  -0.000335   0.000167  -0.000891
   86  O  2 YYX   0.001017   0.000768   0.000435  -0.000206   0.000173
   87  O  2 YYZ  -0.000577  -0.000623   0.000088  -0.000091   0.000508
   88  O  2 ZZX  -0.000998  -0.001131   0.001167  -0.000401   0.001810
   89  O  2 ZZY   0.000011   0.000097  -0.000391   0.000117  -0.000446
   90  O  2 XYZ   0.000550   0.000221   0.001430  -0.000607   0.001521
   91  O  2  S    0.114358   0.062298   0.019132  -0.007999  -0.017372
[...]
  161. RY (17) H  4                      0.00000        0.00000       0.00000
  162. RY (18) H  4                      0.00000        0.00000       0.00000
  163. RY (19) H  4                      0.00000        0.00000       0.00000
  164. RY (20) H  4                      0.00000        0.00000       0.00000
  165. RY (21) H  4                      0.00000        0.00000       0.00000
  166. RY (22) H  4                      0.00000        0.00000       0.00000
  167. RY ( 1) H  5                      0.00155        0.00062      -0.00092
  168. RY ( 2) H  5                      0.00136        0.00095      -0.00041
  169. RY ( 3) H  5                      0.00087        0.00074      -0.00013
  170. RY ( 4) H  5                      0.00051        0.00016      -0.00035
  171. RY ( 5) H  5                      0.00017        0.00009      -0.00008
  172. RY ( 6) H  5                      0.00011        0.00000      -0.00011
  173. RY ( 7) H  5                      0.00008        0.00001      -0.00007
  174. RY ( 8) H  5                      0.00002        0.00001      -0.00001
  175. RY ( 9) H  5                      0.00001        0.00000      -0.00001
  176. RY (10) H  5                      0.00000        0.00000       0.00000
  177. RY (11) H  5                      0.00000        0.00000       0.00000
  178. RY (12) H  5                      0.00000        0.00000       0.00000
  179. RY (13) H  5                      0.00000        0.00000       0.00000
  180. RY (14) H  5                      0.00000        0.00000       0.00000
  181. RY (15) H  5                      0.00000        0.00000       0.00000
  182. RY (16) H  5                      0.00000        0.00000       0.00000
  183. RY (17) H  5                      0.00000        0.00000       0.00000
  184. RY (18) H  5                      0.00000        0.00000       0.00000
  185. RY (19) H  5                      0.00000        0.00001       0.00001
  186. RY (20) H  5                      0.00000        0.00000       0.00000
  187. RY (21) H  5                      0.00000        0.00000       0.00000
  188. RY (22) H  5                      0.00000        0.00000       0.00000
  189. RY ( 1) H  6                      0.00155        0.00062      -0.00092
  190. RY ( 2) H  6                      0.00136        0.00095      -0.00041
  191. RY ( 3) H  6                      0.00087        0.00074      -0.00013
  192. RY ( 4) H  6                      0.00051        0.00016      -0.00035
  193. RY ( 5) H  6                      0.00017        0.00009      -0.00008
  194. RY ( 6) H  6                      0.00011        0.00000      -0.00011
  195. RY ( 7) H  6                      0.00008        0.00001      -0.00007
  196. RY ( 8) H  6                      0.00002        0.00001      -0.00001
  197. RY ( 9) H  6                      0.00001        0.00000      -0.00001
  198. RY (10) H  6                      0.00000        0.00000       0.00000
  199. RY (11) H  6                      0.00000        0.00000       0.00000
  200. RY (12) H  6                      0.00000        0.00000       0.00000
  201. RY (13) H  6                      0.00000        0.00000       0.00000
  202. RY (14) H  6                      0.00000        0.00000       0.00000
  203. RY (15) H  6                      0.00000        0.00000       0.00000
  204. RY (16) H  6                      0.00000        0.00000       0.00000
  205. RY (17) H  6                      0.00000        0.00000       0.00000
  206. RY (18) H  6                      0.00000        0.00000       0.00000
  207. RY (19) H  6                      0.00000        0.00001       0.00001
  208. RY (20) H  6                      0.00000        0.00000       0.00000
  209. RY (21) H  6                      0.00000        0.00000       0.00000
  210. RY (22) H  6                      0.00000        0.00000       0.00000
  211. RY ( 1) H  7                      0.00129        0.00123      -0.00006
  212. RY ( 2) H  7                      0.00065        0.00062      -0.00003
  213. RY ( 3) H  7                      0.00042        0.00045       0.00002
  214. RY ( 4) H  7                      0.00003        0.00001      -0.00003
  215. RY ( 5) H  7                      0.00003        0.00001      -0.00002
  216. RY ( 6) H  7                      0.00001        0.00000       0.00000
  217. RY ( 7) H  7                      0.00000        0.00000       0.00000
  218. RY ( 8) H  7                      0.00000        0.00000       0.00000
  219. RY ( 9) H  7                      0.00000        0.00000       0.00000
  220. RY (10) H  7                      0.00000        0.00000       0.00000
  221. RY (11) H  7                      0.00000        0.00000       0.00000
  222. RY (12) H  7                      0.00000        0.00000       0.00000
  223. RY (13) H  7                      0.00000        0.00000       0.00000
  224. RY (14) H  7                      0.00000        0.00000       0.00000
  225. RY (15) H  7                      0.00000        0.00000       0.00000
  226. RY (16) H  7                      0.00000        0.00000       0.00000
  227. RY (17) H  7                      0.00000        0.00000       0.00000
  228. RY (18) H  7                      0.00000        0.00000       0.00000
  229. RY (19) H  7                      0.00000        0.00000       0.00000
  230. RY (20) H  7                      0.00000        0.00000       0.00000
  231. RY (21) H  7                      0.00000        0.00000       0.00000
  232. RY (22) H  7                      0.00000        0.00000       0.00000
  233. RY ( 1) H  8                      0.00129        0.00123      -0.00006
  234. RY ( 2) H  8                      0.00065        0.00062      -0.00003
  235. RY ( 3) H  8                      0.00042        0.00045       0.00002
  236. RY ( 4) H  8                      0.00003        0.00001      -0.00003
  237. RY ( 5) H  8                      0.00003        0.00001      -0.00002
  238. RY ( 6) H  8                      0.00001        0.00000       0.00000
  239. RY ( 7) H  8                      0.00000        0.00000       0.00000
  240. RY ( 8) H  8                      0.00000        0.00000       0.00000
  241. RY ( 9) H  8                      0.00000        0.00000       0.00000
  242. RY (10) H  8                      0.00000        0.00000       0.00000
  243. RY (11) H  8                      0.00000        0.00000       0.00000
  244. RY (12) H  8                      0.00000        0.00000       0.00000
  245. RY (13) H  8                      0.00000        0.00000       0.00000
  246. RY (14) H  8                      0.00000        0.00000       0.00000
  247. RY (15) H  8                      0.00000        0.00000       0.00000
  248. RY (16) H  8                      0.00000        0.00000       0.00000
  249. RY (17) H  8                      0.00000        0.00000       0.00000
  250. RY (18) H  8                      0.00000        0.00000       0.00000
  251. RY (19) H  8                      0.00000        0.00000       0.00000
  252. RY (20) H  8                      0.00000        0.00000       0.00000
  253. RY (21) H  8                      0.00000        0.00000       0.00000
  254. RY (22) H  8                      0.00000        0.00000       0.00000
  255. RY ( 1) H  9                      0.00129        0.00123      -0.00006
  256. RY ( 2) H  9                      0.00065        0.00062      -0.00003
  257. RY ( 3) H  9                      0.00042        0.00045       0.00002
  258. RY ( 4) H  9                      0.00003        0.00001      -0.00003
  259. RY ( 5) H  9                      0.00003        0.00001      -0.00002
  260. RY ( 6) H  9                      0.00001        0.00000       0.00000
  261. RY ( 7) H  9                      0.00000        0.00000       0.00000
  262. RY ( 8) H  9                      0.00000        0.00000       0.00000
  263. RY ( 9) H  9                      0.00000        0.00000       0.00000
  264. RY (10) H  9                      0.00000        0.00000       0.00000
  265. RY (11) H  9                      0.00000        0.00000       0.00000
  266. RY (12) H  9                      0.00000        0.00000       0.00000
  267. RY (13) H  9                      0.00000        0.00000       0.00000
  268. RY (14) H  9                      0.00000        0.00000       0.00000
  269. RY (15) H  9                      0.00000        0.00000       0.00000
  270. RY (16) H  9                      0.00000        0.00000       0.00000
  271. RY (17) H  9                      0.00000        0.00000       0.00000
  272. RY (18) H  9                      0.00000        0.00000       0.00000
  273. RY (19) H  9                      0.00000        0.00000       0.00000
  274. RY (20) H  9                      0.00000        0.00000       0.00000
  275. RY (21) H  9                      0.00000        0.00000       0.00000
  276. RY (22) H  9                      0.00000        0.00000       0.00000

 NEXT STEP:  Perform one SCF cycle to evaluate the energy of the new density
             matrix constructed from the deleted NBO Fock matrix.

 ------------------------------------------------------------------------------

          --------------------------
             R-B3LYP SCF CALCULATION
          --------------------------
         DENSITY MATRIX CONVERGENCE THRESHOLD=  1.00E-05
     COARSE -> FINE DFT GRID SWITCH THRESHOLD=  3.00E-04 (SWITCH IN $DFT)
                   HF -> DFT SWITCH THRESHOLD=  0.00E+00 (SWOFF IN $DFT)

 ITER EX DEM     TOTAL ENERGY        E CHANGE  DENSITY CHANGE    DIIS ERROR
   1  0  0     -229.2614005756  -229.2614005756   0.069006358   0.000000000

 SCF IS UNCONVERGED, TOO MANY ITERATIONS
     TIME TO FORM FOCK OPERATORS=      37.5 SECONDS (      37.5 SEC/ITER)
     TIME TO SOLVE SCF EQUATIONS=       0.2 SECONDS (       0.2 SEC/ITER)

 FINAL R-B3LYP ENERGY IS        0.0000000000 AFTER   1 ITERATIONS
 DFT EXCHANGE + CORRELATION ENERGY =       -22.5825608429
 TOTAL ELECTRON NUMBER             =        29.9999767827
 ...... END OF RHF CALCULATION ......
 STEP CPU TIME =    40.52 TOTAL CPU TIME =        562.1 (      9.4 MIN)
 TOTAL WALL CLOCK TIME=        996.8 SECONDS, CPU UTILIZATION IS    56.39%

 ------------------------------------------------------------------------------
   Energy of deletion :       -229.261400576
     Total SCF energy :       -229.308850080
                          -------------------
        Energy change :          0.047450 a.u.,          29.775 kcal/mol
 ------------------------------------------------------------------------------

 --------------
  Fragment  1:
 --------------

 ...... END OF ONE-ELECTRON INTEGRALS ......
 STEP CPU TIME =     0.07 TOTAL CPU TIME =        562.1 (      9.4 MIN)
 TOTAL WALL CLOCK TIME=        996.9 SECONDS, CPU UTILIZATION IS    56.39%

          --------------------------
             R-B3LYP SCF CALCULATION
          --------------------------
         DENSITY MATRIX CONVERGENCE THRESHOLD=  1.00E-05
     COARSE -> FINE DFT GRID SWITCH THRESHOLD=  3.00E-04 (SWITCH IN $DFT)
                   HF -> DFT SWITCH THRESHOLD=  0.00E+00 (SWOFF IN $DFT)

 ITER EX DEM     TOTAL ENERGY        E CHANGE  DENSITY CHANGE    DIIS ERROR
          * * *   INITIATING DIIS PROCEDURE   * * *
   1  0  0      -76.3935880327   -76.3935880327   0.055933985   0.072430769
   2  1  0      -76.4264856036    -0.0328975709   0.022719099   0.016123232
   3  2  0      -76.4238429184     0.0026426852   0.014862365   0.023282757
   4  3  0      -76.4289907747    -0.0051478562   0.000778110   0.000821119
   5  4  0      -76.4289995333    -0.0000087587   0.000118449   0.000089411
   6  5  0      -76.4289997110    -0.0000001777   0.000018455   0.000022765
   7  6  0      -76.4289997172    -0.0000000062   0.000004446   0.000003140
   8  7  0      -76.4289997175    -0.0000000003   0.000000368   0.000000196

          -----------------
          DENSITY CONVERGED
          -----------------
     TIME TO FORM FOCK OPERATORS=     281.1 SECONDS (      35.1 SEC/ITER)
     TIME TO SOLVE SCF EQUATIONS=       2.1 SECONDS (       0.3 SEC/ITER)

 FINAL R-B3LYP ENERGY IS      -76.4289997175 AFTER   8 ITERATIONS
 DFT EXCHANGE + CORRELATION ENERGY =        -7.5020297357
 TOTAL ELECTRON NUMBER             =         9.9999957227
 ...... END OF RHF CALCULATION ......
 STEP CPU TIME =   283.49 TOTAL CPU TIME =        845.6 (     14.1 MIN)
 TOTAL WALL CLOCK TIME=       1474.5 SECONDS, CPU UTILIZATION IS    57.35%
 ...... END OF ONE-ELECTRON INTEGRALS ......
 STEP CPU TIME =     0.01 TOTAL CPU TIME =        845.6 (     14.1 MIN)
 TOTAL WALL CLOCK TIME=       1474.5 SECONDS, CPU UTILIZATION IS    57.35%

 Dipole (def):   -1.6708(x),   0.8583(y),   1.1352(z);   2.1948(tot) Debye
 Dipole (rel):   -1.3901(x),   0.4738(y),   1.0855(z);   1.8262(tot) Debye
 Dipole (ind):   -0.2808(x),   0.3845(y),   0.0498(z);   0.4787(tot) Debye

 --------------
  Fragment  2:
 --------------

 ...... END OF ONE-ELECTRON INTEGRALS ......
 STEP CPU TIME =     0.08 TOTAL CPU TIME =        845.7 (     14.1 MIN)
 TOTAL WALL CLOCK TIME=       1474.6 SECONDS, CPU UTILIZATION IS    57.35%

          --------------------------
             R-B3LYP SCF CALCULATION
          --------------------------
         DENSITY MATRIX CONVERGENCE THRESHOLD=  1.00E-05
     COARSE -> FINE DFT GRID SWITCH THRESHOLD=  3.00E-04 (SWITCH IN $DFT)
                   HF -> DFT SWITCH THRESHOLD=  0.00E+00 (SWOFF IN $DFT)

 ITER EX DEM     TOTAL ENERGY        E CHANGE  DENSITY CHANGE    DIIS ERROR
          * * *   INITIATING DIIS PROCEDURE   * * *
   1  0  0      -76.3935842814   -76.3935842814   0.055938662   0.063229829
   2  1  0      -76.4264826364    -0.0328983550   0.022732043   0.012101035
   3  2  0      -76.4238398996     0.0026427368   0.014945559   0.017716070
   4  3  0      -76.4289877998    -0.0051479001   0.000778084   0.000751278
   5  4  0      -76.4289965578    -0.0000087581   0.000118550   0.000086903
   6  5  0      -76.4289967355    -0.0000001777   0.000018365   0.000018947
   7  6  0      -76.4289967418    -0.0000000062   0.000004444   0.000002967
   8  7  0      -76.4289967420    -0.0000000003   0.000000372   0.000000183

          -----------------
          DENSITY CONVERGED
          -----------------
     TIME TO FORM FOCK OPERATORS=     280.6 SECONDS (      35.1 SEC/ITER)
     TIME TO SOLVE SCF EQUATIONS=       2.2 SECONDS (       0.3 SEC/ITER)

 FINAL R-B3LYP ENERGY IS      -76.4289967420 AFTER   8 ITERATIONS
 DFT EXCHANGE + CORRELATION ENERGY =        -7.5020284688
 TOTAL ELECTRON NUMBER             =         9.9999794960
 ...... END OF RHF CALCULATION ......
 STEP CPU TIME =   282.95 TOTAL CPU TIME =       1128.7 (     18.8 MIN)
 TOTAL WALL CLOCK TIME=       1952.9 SECONDS, CPU UTILIZATION IS    57.79%
 ...... END OF ONE-ELECTRON INTEGRALS ......
 STEP CPU TIME =     0.02 TOTAL CPU TIME =       1128.7 (     18.8 MIN)
 TOTAL WALL CLOCK TIME=       1952.9 SECONDS, CPU UTILIZATION IS    57.79%

 Dipole (def):    0.0921(x),  -1.8761(y),   1.1353(z);   2.1948(tot) Debye
 Dipole (rel):    0.2847(x),  -1.4407(y),   1.0855(z);   1.8262(tot) Debye
 Dipole (ind):   -0.1926(x),  -0.4354(y),   0.0498(z);   0.4787(tot) Debye

 --------------
  Fragment  3:
 --------------

 ...... END OF ONE-ELECTRON INTEGRALS ......
 STEP CPU TIME =     0.08 TOTAL CPU TIME =       1128.8 (     18.8 MIN)
 TOTAL WALL CLOCK TIME=       1953.0 SECONDS, CPU UTILIZATION IS    57.80%

          --------------------------
             R-B3LYP SCF CALCULATION
          --------------------------
         DENSITY MATRIX CONVERGENCE THRESHOLD=  1.00E-05
     COARSE -> FINE DFT GRID SWITCH THRESHOLD=  3.00E-04 (SWITCH IN $DFT)
                   HF -> DFT SWITCH THRESHOLD=  0.00E+00 (SWOFF IN $DFT)

 ITER EX DEM     TOTAL ENERGY        E CHANGE  DENSITY CHANGE    DIIS ERROR
          * * *   INITIATING DIIS PROCEDURE   * * *
   1  0  0      -76.3935887376   -76.3935887376   0.056078606   0.062238268
   2  1  0      -76.4264869602    -0.0328982227   0.022716718   0.013466226
   3  2  0      -76.4238447092     0.0026422510   0.014942788   0.020230540
   4  3  0      -76.4289918657    -0.0051471565   0.000778196   0.000731793
   5  4  0      -76.4290006222    -0.0000087564   0.000118644   0.000077969
   6  5  0      -76.4290008001    -0.0000001780   0.000018352   0.000018508
   7  6  0      -76.4290008064    -0.0000000063   0.000004448   0.000002770
   8  7  0      -76.4290008067    -0.0000000003   0.000000379   0.000000178

          -----------------
          DENSITY CONVERGED
          -----------------
     TIME TO FORM FOCK OPERATORS=     281.4 SECONDS (      35.2 SEC/ITER)
     TIME TO SOLVE SCF EQUATIONS=       2.1 SECONDS (       0.3 SEC/ITER)

 FINAL R-B3LYP ENERGY IS      -76.4290008067 AFTER   8 ITERATIONS
 DFT EXCHANGE + CORRELATION ENERGY =        -7.5020302985
 TOTAL ELECTRON NUMBER             =        10.0000015684
 ...... END OF RHF CALCULATION ......
 STEP CPU TIME =   283.72 TOTAL CPU TIME =       1412.5 (     23.5 MIN)
 TOTAL WALL CLOCK TIME=       2430.0 SECONDS, CPU UTILIZATION IS    58.13%
 ...... END OF ONE-ELECTRON INTEGRALS ......
 STEP CPU TIME =     0.02 TOTAL CPU TIME =       1412.5 (     23.5 MIN)
 TOTAL WALL CLOCK TIME=       2430.0 SECONDS, CPU UTILIZATION IS    58.13%

 Dipole (def):    1.5787(x),   1.0178(y),   1.1352(z);   2.1948(tot) Debye
 Dipole (rel):    1.1054(x),   0.9669(y),   1.0855(z);   1.8262(tot) Debye
 Dipole (ind):    0.4733(x),   0.0509(y),   0.0498(z);   0.4787(tot) Debye


 Natural Energy Decomposition Analysis (Summary):

                                                            Component
                    Energy(wfn)        Energy(wfn)          (kcal/mol)
 ------------------------------------------------------------------------------
 H6O3           -229.3088501(scf)  -229.2614006(loc)      CT =  -29.775
                                                          ES =  -25.362
                                                         POL =  -15.246
                                                          XC =   -9.994
 1. H2O          -76.3935880(def)   -76.4289997(rel) DEF(SE) =   22.221(  2.625)
 2. H2O          -76.3935843(def)   -76.4289967(rel) DEF(SE) =   22.222(  2.625)
 3. H2O          -76.3935887(def)   -76.4290008(rel) DEF(SE) =   22.221(  2.625)
                                                              ---------
                                                           E =  -13.713


 Electrical (ES+POL+SE) :    -32.734
   Charge Transfer (CT) :    -29.775
       Core (XC+DEF-SE) :     48.796
                        ------------
  Total Interaction (E) :    -13.713

 ..... done with NBO analysis .....
 STEP CPU TIME =    51.84 TOTAL CPU TIME =       1464.3 (     24.4 MIN)
 TOTAL WALL CLOCK TIME=       2498.6 SECONDS, CPU UTILIZATION IS    58.61%
              2223852  WORDS OF DYNAMIC MEMORY USED
 EXECUTION OF GAMESS TERMINATED NORMALLY Thu Apr 18 14:25:58 2019
 DDI: 263640 bytes (0.3 MB / 0 MWords) used by master data server.

 ----------------------------------------
 CPU timing information for all processes
 ========================================
 0: 1085.109 + 376.444 = 1461.553
 ----------------------------------------
Note: The following floating-point exceptions are signalling: IEEE_UNDERFLOW_FLAG IEEE_DENORMAL
 ddikick.x: exited gracefully.
unset echo
----- accounting info -----
Files used on the master node neutron were:
-rw-rw-r-- 1 ericg ericg     7044293 Apr 18 14:24 /home/ericg/scr/b.11.3.4a.dat
-rw-rw-r-- 1 ericg ericg         367 Apr 18 13:44 /home/ericg/scr/b.11.3.4a.F05
-rw-rw-r-- 1 ericg ericg 15049483232 Apr 18 13:45 /home/ericg/scr/b.11.3.4a.F08
-rw-rw-r-- 1 ericg ericg     9423360 Apr 18 14:26 /home/ericg/scr/b.11.3.4a.F10
ls: No match.
ls: No match.
ls: No match.
Thu Apr 18 14:26:01 EDT 2019
0.111u 0.626s 41:42.30 0.0%	0+0k 752+16io 12pf+0w
