----- GAMESS execution script 'rungms' -----
This job is running on host neutron
under operating system Linux at Thu Apr 18 14:26:02 EDT 2019
Available scratch disk space (Kbyte units) at beginning of the job is
Filesystem     1K-blocks      Used Available Use% Mounted on
/dev/sda2      236432240 131180120  93172352  59% /
GAMESS temporary binary files will be written to /home/ericg/scr
GAMESS supplementary output files will be written to /home/ericg/scr
Copying input file b.11.3.4b.inp to your run's scratch directory...
cp -i b.11.3.4b.inp /home/ericg/scr/b.11.3.4b.F05
unset echo
/opt/gamess/ddikick.x /opt/gamess/gamess.00.x b.11.3.4b -ddi 1 1 neutron -scr /home/ericg/scr

 Distributed Data Interface kickoff program.
 Initiating 1 compute processes on 1 nodes to run the following command:
 /opt/gamess/gamess.00.x b.11.3.4b 

          ******************************************************
          *         GAMESS VERSION = 30 SEP 2018 (R3)         *
          *             FROM IOWA STATE UNIVERSITY             *
          * M.W.SCHMIDT, K.K.BALDRIDGE, J.A.BOATZ, S.T.ELBERT, *
          *   M.S.GORDON, J.H.JENSEN, S.KOSEKI, N.MATSUNAGA,   *
          *          K.A.NGUYEN, S.J.SU, T.L.WINDUS,           *
          *       TOGETHER WITH M.DUPUIS, J.A.MONTGOMERY       *
          *         J.COMPUT.CHEM.  14, 1347-1363(1993)        *
          **************** 64 BIT LINUX VERSION ****************

  SINCE 1993, STUDENTS AND POSTDOCS WORKING AT IOWA STATE UNIVERSITY
  AND ALSO IN THEIR VARIOUS JOBS AFTER LEAVING ISU HAVE MADE IMPORTANT
  CONTRIBUTIONS TO THE CODE:
     IVANA ADAMOVIC, CHRISTINE AIKENS, YURI ALEXEEV, POOJA ARORA,
     ANDREY ASADCHEV, ROB BELL, PRADIPTA BANDYOPADHYAY, JONATHAN BENTZ,
     BRETT BODE, KURT BRORSEN, CALEB CARLIN, GALINA CHABAN, WEI CHEN,
     CHEOL HO CHOI, PAUL DAY, ALBERT DEFUSCO, NUWAN DESILVA, TIM DUDLEY,
     DMITRI FEDOROV, ALEX FINDLATER, GRAHAM FLETCHER, MARK FREITAG,
     KURT GLAESEMANN, ANASTASIA GUNINA,
     DAN KEMP, GRANT MERRILL, NORIYUKI MINEZAWA, JONATHAN MULLIN,
     TAKESHI NAGATA, SEAN NEDD, HEATHER NETZLOFF, BOSILJKA NJEGIC, RYAN OLSON,
     MIKE PAK, BUU PHAM,
     SPENCER PRUITT, LUKE ROSKOP, JIM SHOEMAKER, LYUDMILA SLIPCHENKO,
     TONY SMITH, SAROM SOK LEANG, JIE SONG, TETSUYA TAKETSUGU, SIMON WEBB,
     PENG XU, SOOHAENG YOO, FEDERICO ZAHARIEV

  ADDITIONAL CODE HAS BEEN PROVIDED BY COLLABORATORS IN OTHER GROUPS:
     IOWA STATE UNIVERSITY:
          JOE IVANIC, AARON WEST, LAIMUTIS BYTAUTAS, KLAUS RUEDENBERG
     UNIVERSITY OF TOKYO: KIMIHIKO HIRAO, TAKAHITO NAKAJIMA,
          TAKAO TSUNEDA, MUNEAKI KAMIYA, SUSUMU YANAGISAWA,
          KIYOSHI YAGI, MAHITO CHIBA, SEIKEN TOKURA, NAOAKI KAWAKAMI
     UNIVERSITY OF AARHUS: FRANK JENSEN
     UNIVERSITY OF IOWA: VISVALDAS KAIRYS, HUI LI
     NATIONAL INST. OF STANDARDS AND TECHNOLOGY: WALT STEVENS, DAVID GARMER
     UNIVERSITY OF PISA: BENEDETTA MENNUCCI, JACOPO TOMASI
     UNIVERSITY OF MEMPHIS: HENRY KURTZ, PRAKASHAN KORAMBATH
     UNIVERSITY OF ALBERTA: TOBY ZENG, MARIUSZ KLOBUKOWSKI
     UNIVERSITY OF NEW ENGLAND: MARK SPACKMAN
     MIE UNIVERSITY: HIROAKI UMEDA
     NAT. INST. OF ADVANCED INDUSTRIAL SCIENCE AND TECHNOLOGY: KAZUO KITAURA
     MICHIGAN STATE UNIVERSITY:
          KAROL KOWALSKI, MARTA WLOCH, JEFFREY GOUR, JESSE LUTZ,
          WEI LI, JUN SHEN, J. EMILIANO DEUSTUA, PIOTR PIECUCH
     UNIVERSITY OF MINNESOTA:
          YINAN SHU
     UNIVERSITY OF SILESIA: MONIKA MUSIAL, STANISLAW KUCHARSKI
     FACULTES UNIVERSITAIRES NOTRE-DAME DE LA PAIX:
          OLIVIER QUINET, BENOIT CHAMPAGNE
     UNIVERSITY OF CALIFORNIA - SANTA BARBARA: BERNARD KIRTMAN
     INSTITUTE FOR MOLECULAR SCIENCE:
          KAZUYA ISHIMURA, MICHIO KATOUDA, AND SHIGERU NAGASE
     UNIVERSITY OF NOTRE DAME: ANNA POMOGAEVA, DAN CHIPMAN
     KYUSHU UNIVERSITY:
          HARUYUKI NAKANO,
          FENG LONG GU, JACEK KORCHOWIEC, MARCIN MAKOWSKI, AND YURIKO AOKI,
          HIROTOSHI MORI AND EISAKU MIYOSHI
     PENNSYLVANIA STATE UNIVERSITY:
          TZVETELIN IORDANOV, CHET SWALINA, JONATHAN SKONE,
          SHARON HAMMES-SCHIFFER
     WASEDA UNIVERSITY:
          MASATO KOBAYASHI, TOMOKO AKAMA, TSUGUKI TOUMA,
          TAKESHI YOSHIKAWA, YASUHIRO IKABATA, JUNJI SEINO,
          YUYA NAKAJIMA, HIROMI NAKAI
     NANJING UNIVERSITY: SHUHUA LI
     UNIVERSITY OF NEBRASKA:
          PEIFENG SU, DEJUN SI, NANDUN THELLAMUREGE, YALI WANG, HUI LI
     UNIVERSITY OF ZURICH: ROBERTO PEVERATI, KIM BALDRIDGE
     N. COPERNICUS UNIVERSITY AND JACKSON STATE UNIVERSITY:
          MARIA BARYSZ
     UNIVERSITY OF COPENHAGEN: Jimmy Kromann, CASPER STEINMANN
     TOKYO INSTITUTE OF TECHNOLOGY: HIROYA NAKATA
     NAGOYA UNIVERSITY: YOSHIO NISHIMOTO, STEPHAN IRLE
     MOSCOW STATE UNIVERSITY: VLADIMIR MIRONOV

 EXECUTION OF GAMESS BEGUN Thu Apr 18 14:26:02 2019

            ECHO OF THE FIRST FEW INPUT CARDS -
 INPUT CARD> $contrl  dfttyp=b3lyp  scftyp=rhf  runtyp=energy  nosym=1  ispher=1            
 INPUT CARD>    $end                                                                        
 INPUT CARD> $basis  gbasis=acct  $end                                                      
 INPUT CARD> $nbo  $end                                                                     
 INPUT CARD> $del  neda end  $end                                                           
 INPUT CARD> $data                                                                          
 INPUT CARD>water dimer (geometry of C3 water trimer)                                       
 INPUT CARD>C1                                                                              
 INPUT CARD>Oxygen     8.    -0.957406    1.304375   -0.091870                              
 INPUT CARD>Hydrogen   1.     0.014172    1.244266   -0.037940                              
 INPUT CARD>Hydrogen   1.    -1.225393    1.975012    0.541376                              
 INPUT CARD>Oxygen     8.     1.608343    0.176994   -0.091952                              
 INPUT CARD>Hydrogen   1.     1.070533   -0.634390   -0.038105                              
 INPUT CARD>Hydrogen   1.     2.322945    0.073834    0.541511                              
 INPUT CARD> $end                                                                           
    1000000 WORDS OF MEMORY AVAILABLE

     BASIS OPTIONS
     -------------
     GBASIS=ACCT         IGAUSS=       0      POLAR=NONE    
     NDFUNC=       0     NFFUNC=       0     DIFFSP=       F
     NPFUNC=       0      DIFFS=       F     BASNAM=        


     RUN TITLE
     ---------
 water dimer (geometry of C3 water trimer)                                       

 THE POINT GROUP OF THE MOLECULE IS C1      
 THE ORDER OF THE PRINCIPAL AXIS IS     0

 ATOM      ATOMIC                      COORDINATES (BOHR)
           CHARGE         X                   Y                   Z
 OXYGEN      8.0    -1.8092349990        2.4649113352       -0.1736091265
 HYDROGEN    1.0     0.0267811967        2.3513217958       -0.0716962040
 HYDROGEN    1.0    -2.3156569973        3.7322315025        1.0230522963
 OXYGEN      8.0     3.0393275643        0.3344701615       -0.1737640840
 HYDROGEN    1.0     2.0230140308       -1.1988232694       -0.0720080088
 HYDROGEN    1.0     4.3897295345        0.1395260286        1.0233074093

          INTERNUCLEAR DISTANCES (ANGS.)
          ------------------------------

                1 OXYG       2 HYDR       3 HYDR       4 OXYG       5 HYDR  

   1 OXYG    0.0000000    0.9749284 *  0.9605059 *  2.8025089 *  2.8061071 *
   2 HYDR    0.9749284 *  0.0000000    1.5511667 *  1.9192103 *  2.1552835 *
   3 HYDR    0.9605059 *  1.5511667 *  0.0000000    3.4152647    3.5236420  
   4 OXYG    2.8025089 *  1.9192103 *  3.4152647    0.0000000    0.9749272 *
   5 HYDR    2.8061071 *  2.1552835 *  3.5236420    0.9749272 *  0.0000000  
   6 HYDR    3.5603519    2.6525662 *  4.0255658    0.9605068 *  1.5511518 *

                6 HYDR  

   1 OXYG    3.5603519  
   2 HYDR    2.6525662 *
   3 HYDR    4.0255658  
   4 OXYG    0.9605068 *
   5 HYDR    1.5511518 *
   6 HYDR    0.0000000  

  * ... LESS THAN  3.000


     ATOMIC BASIS SET
     ----------------
 THE CONTRACTED PRIMITIVE FUNCTIONS HAVE BEEN UNNORMALIZED
 THE CONTRACTED BASIS FUNCTIONS ARE NOW NORMALIZED TO UNITY

  SHELL TYPE  PRIMITIVE        EXPONENT          CONTRACTION COEFFICIENT(S)

 OXYGEN    

      1   S       1         15330.0000000    0.000520198307
      1   S       2          2299.0000000    0.004023344781
      1   S       3           522.4000000    0.020729083329
      1   S       4           147.3000000    0.081082327080
      1   S       5            47.5500000    0.236226352118
      1   S       6            16.7600000    0.443518209420
      1   S       7             6.2070000    0.358670588689
      1   S       8             0.6882000   -0.008349797237

      2   S       9         15330.0000000   -0.000197236012
      2   S      10          2299.0000000   -0.001535010700
      2   S      11           522.4000000   -0.007951183914
      2   S      12           147.3000000   -0.032113452892
      2   S      13            47.5500000   -0.100269643049
      2   S      14            16.7600000   -0.234047111838
      2   S      15             6.2070000   -0.301410927756
      2   S      16             0.6882000    1.034919649508

      3   S      17             1.7520000    1.000000000000

      4   S      18             0.2384000    1.000000000000

      5   P      19            34.4600000    0.041163489568
      5   P      20             7.7490000    0.257762835858
      5   P      21             2.2800000    0.802419274427

      6   P      22             0.7156000    1.000000000000

      7   P      23             0.2140000    1.000000000000

      8   D      24             2.3140000    1.000000000000

      9   D      25             0.6450000    1.000000000000

     10   F      26             1.4280000    1.000000000000

     11   S      27             0.0737600    1.000000000000

     12   P      28             0.0597400    1.000000000000

     13   D      29             0.2140000    1.000000000000

     14   F      30             0.5000000    1.000000000000

 HYDROGEN  

     15   S      31            33.8700000    0.025494863235
     15   S      32             5.0950000    0.190362765893
     15   S      33             1.1590000    0.852162022245

     16   S      34             0.3258000    1.000000000000

     17   S      35             0.1027000    1.000000000000

     18   P      36             1.4070000    1.000000000000

     19   P      37             0.3880000    1.000000000000

     20   D      38             1.0570000    1.000000000000

     21   S      39             0.0252600    1.000000000000

     22   P      40             0.1020000    1.000000000000

     23   D      41             0.2470000    1.000000000000

 HYDROGEN  

     24   S      42            33.8700000    0.025494863235
     24   S      43             5.0950000    0.190362765893
     24   S      44             1.1590000    0.852162022245

     25   S      45             0.3258000    1.000000000000

     26   S      46             0.1027000    1.000000000000

     27   P      47             1.4070000    1.000000000000

     28   P      48             0.3880000    1.000000000000

     29   D      49             1.0570000    1.000000000000

     30   S      50             0.0252600    1.000000000000

     31   P      51             0.1020000    1.000000000000

     32   D      52             0.2470000    1.000000000000

 OXYGEN    

     33   S      53         15330.0000000    0.000520198307
     33   S      54          2299.0000000    0.004023344781
     33   S      55           522.4000000    0.020729083329
     33   S      56           147.3000000    0.081082327080
     33   S      57            47.5500000    0.236226352118
     33   S      58            16.7600000    0.443518209420
     33   S      59             6.2070000    0.358670588689
     33   S      60             0.6882000   -0.008349797237

     34   S      61         15330.0000000   -0.000197236012
     34   S      62          2299.0000000   -0.001535010700
     34   S      63           522.4000000   -0.007951183914
     34   S      64           147.3000000   -0.032113452892
     34   S      65            47.5500000   -0.100269643049
     34   S      66            16.7600000   -0.234047111838
     34   S      67             6.2070000   -0.301410927756
     34   S      68             0.6882000    1.034919649508

     35   S      69             1.7520000    1.000000000000

     36   S      70             0.2384000    1.000000000000

     37   P      71            34.4600000    0.041163489568
     37   P      72             7.7490000    0.257762835858
     37   P      73             2.2800000    0.802419274427

     38   P      74             0.7156000    1.000000000000

     39   P      75             0.2140000    1.000000000000

     40   D      76             2.3140000    1.000000000000

     41   D      77             0.6450000    1.000000000000

     42   F      78             1.4280000    1.000000000000

     43   S      79             0.0737600    1.000000000000

     44   P      80             0.0597400    1.000000000000

     45   D      81             0.2140000    1.000000000000

     46   F      82             0.5000000    1.000000000000

 HYDROGEN  

     47   S      83            33.8700000    0.025494863235
     47   S      84             5.0950000    0.190362765893
     47   S      85             1.1590000    0.852162022245

     48   S      86             0.3258000    1.000000000000

     49   S      87             0.1027000    1.000000000000

     50   P      88             1.4070000    1.000000000000

     51   P      89             0.3880000    1.000000000000

     52   D      90             1.0570000    1.000000000000

     53   S      91             0.0252600    1.000000000000

     54   P      92             0.1020000    1.000000000000

     55   D      93             0.2470000    1.000000000000

 HYDROGEN  

     56   S      94            33.8700000    0.025494863235
     56   S      95             5.0950000    0.190362765893
     56   S      96             1.1590000    0.852162022245

     57   S      97             0.3258000    1.000000000000

     58   S      98             0.1027000    1.000000000000

     59   P      99             1.4070000    1.000000000000

     60   P     100             0.3880000    1.000000000000

     61   D     101             1.0570000    1.000000000000

     62   S     102             0.0252600    1.000000000000

     63   P     103             0.1020000    1.000000000000

     64   D     104             0.2470000    1.000000000000

 TOTAL NUMBER OF BASIS SET SHELLS             =   64
 NUMBER OF CARTESIAN GAUSSIAN BASIS FUNCTIONS =  210
 NOTE: THIS RUN WILL RESTRICT THE MO VARIATION SPACE TO SPHERICAL HARMONICS.
 THE NUMBER OF ORBITALS KEPT IN THE VARIATIONAL SPACE WILL BE PRINTED LATER.
 NUMBER OF ELECTRONS                          =   20
 CHARGE OF MOLECULE                           =    0
 SPIN MULTIPLICITY                            =    1
 NUMBER OF OCCUPIED ORBITALS (ALPHA)          =   10
 NUMBER OF OCCUPIED ORBITALS (BETA )          =   10
 TOTAL NUMBER OF ATOMS                        =    6
 THE NUCLEAR REPULSION ENERGY IS       37.1362145862

     LEBEDEV GRID-BASED DFT OPTIONS
     ------------------------------
     DFTTYP=B3LYP   
     NRAD  =      96     NLEB  =     302
     NRAD0 =      24     NLEB0 =     110
     SWOFF =    5.00E-03 (PURE SCF -> DFT)
     SWITCH=    3.00E-04 (COARSE -> TIGHT GRID)
     THRESH=    0.00E+00 GTHRE=    1.00E+00

 GRIMME'S EMPIRICAL DISPERSION CORRECTION= F

     $CONTRL OPTIONS
     ---------------
 SCFTYP=RHF          RUNTYP=ENERGY       EXETYP=RUN     
 MPLEVL=       0     CITYP =NONE         CCTYP =NONE         VBTYP =NONE    
 DFTTYP=B3LYP        TDDFT =NONE    
 MULT  =       1     ICHARG=       0     NZVAR =       0     COORD =UNIQUE  
 PP    =NONE         RELWFN=NONE         LOCAL =NONE         NUMGRD=       F
 ISPHER=       1     NOSYM =       1     MAXIT =      30     UNITS =ANGS    
 PLTORB=       F     MOLPLT=       F     AIMPAC=       F     FRIEND=        
 NPRINT=       7     IREST =       0     GEOM  =INPUT   
 NORMF =       0     NORMP =       0     ITOL  =      20     ICUT  =       9
 INTTYP=BEST         GRDTYP=BEST         QMTTOL= 1.0E-06

     $SYSTEM OPTIONS
     ---------------
  REPLICATED MEMORY=     1000000 WORDS (ON EVERY NODE).
 DISTRIBUTED MEMDDI=           0 MILLION WORDS IN AGGREGATE,
 MEMDDI DISTRIBUTED OVER   1 PROCESSORS IS           0 WORDS/PROCESSOR.
 TOTAL MEMORY REQUESTED ON EACH PROCESSOR=     1000000 WORDS.
 TIMLIM=      525600.00 MINUTES, OR     365.0 DAYS.
 PARALL= F  BALTYP=  DLB     KDIAG=    0  COREFL= F
 MXSEQ2=     300 MXSEQ3=     150  mem10=         0

          ----------------
          PROPERTIES INPUT
          ----------------

     MOMENTS            FIELD           POTENTIAL          DENSITY
 IEMOM =       1   IEFLD =       0   IEPOT =       0   IEDEN =       0
 WHERE =COMASS     WHERE =NUCLEI     WHERE =NUCLEI     WHERE =NUCLEI  
 OUTPUT=BOTH       OUTPUT=BOTH       OUTPUT=BOTH       OUTPUT=BOTH    
 IEMINT=       0   IEFINT=       0                     IEDINT=       0
                                                       MORB  =       0
          EXTRAPOLATION IN EFFECT
          DIIS IN EFFECT
 ORBITAL PRINTING OPTION: NPREO=     1   210     2     1

     -------------------------------
     INTEGRAL TRANSFORMATION OPTIONS
     -------------------------------
     NWORD  =            0
     CUTOFF = 1.0E-09     MPTRAN =       0
     DIRTRF =       F     AOINTS =DUP     

          ----------------------
          INTEGRAL INPUT OPTIONS
          ----------------------
 NOPK  =       1 NORDER=       0 SCHWRZ=       T

     ------------------------------------------
     THE POINT GROUP IS C1 , NAXIS= 1, ORDER= 1
     ------------------------------------------

 -- VARIATIONAL SPACE WILL BE RESTRICTED TO PURE SPHERICAL HARMONICS ONLY --
 AFTER EXCLUDING CONTAMINANT COMBINATIONS FROM THE CARTESIAN GAUSSIAN BASIS
 SET, THE NUMBER OF SPHERICAL HARMONICS KEPT IN THE VARIATION SPACE IS  184

     DIMENSIONS OF THE SYMMETRY SUBSPACES ARE
 A   =  184

 ..... DONE SETTING UP THE RUN .....
 STEP CPU TIME =     0.01 TOTAL CPU TIME =          0.0 (      0.0 MIN)
 TOTAL WALL CLOCK TIME=          0.0 SECONDS, CPU UTILIZATION IS    50.00%

          ********************
          1 ELECTRON INTEGRALS
          ********************
 ...... END OF ONE-ELECTRON INTEGRALS ......
 STEP CPU TIME =     0.01 TOTAL CPU TIME =          0.0 (      0.0 MIN)
 TOTAL WALL CLOCK TIME=          0.0 SECONDS, CPU UTILIZATION IS    66.67%

          -------------
          GUESS OPTIONS
          -------------
          GUESS =HUCKEL            NORB  =       0          NORDER=       0
          MIX   =       F          PRTMO =       F          PUNMO =       F
          TOLZ  = 1.0E-08          TOLE  = 1.0E-05
          SYMDEN=       F          PURIFY=       F

 INITIAL GUESS ORBITALS GENERATED BY HUCKEL   ROUTINE.
 HUCKEL GUESS REQUIRES    319134 WORDS.

 STATISTICS FOR GENERATION OF SYMMETRY ORBITAL -Q- MATRIX
 NUMBER OF CARTESIAN ATOMIC ORBITALS=        210
 NUMBER OF SPHERICAL CONTAMINANTS DROPPED=    26
 NUMBER OF LINEARLY DEPENDENT MOS DROPPED=     0
 TOTAL NUMBER OF MOS IN VARIATION SPACE=     184

 SYMMETRIES FOR INITIAL GUESS ORBITALS FOLLOW.   BOTH SET(S).
    10 ORBITALS ARE OCCUPIED (    2 CORE ORBITALS).
     3=A        4=A        5=A        6=A        7=A        8=A        9=A   
    10=A       11=A       12=A       13=A       14=A       15=A       16=A   
    17=A       18=A       19=A       20=A   
 ...... END OF INITIAL ORBITAL SELECTION ......
 STEP CPU TIME =     0.09 TOTAL CPU TIME =          0.1 (      0.0 MIN)
 TOTAL WALL CLOCK TIME=          0.1 SECONDS, CPU UTILIZATION IS    84.62%

                    ----------------------
                    AO INTEGRAL TECHNOLOGY
                    ----------------------
     S,P,L SHELL ROTATED AXIS INTEGRALS, REPROGRAMMED BY
        KAZUYA ISHIMURA (IMS) AND JOSE SIERRA (SYNSTAR).
     S,P,D,L SHELL ROTATED AXIS INTEGRALS PROGRAMMED BY
        KAZUYA ISHIMURA (INSTITUTE FOR MOLECULAR SCIENCE).
     S,P,D,F,G SHELL TO TOTAL QUARTET ANGULAR MOMENTUM SUM 5,
        ERIC PROGRAM BY GRAHAM FLETCHER (ELORET AND NASA ADVANCED
        SUPERCOMPUTING DIVISION, AMES RESEARCH CENTER).
     S,P,D,F,G,L SHELL GENERAL RYS QUADRATURE PROGRAMMED BY
        MICHEL DUPUIS (PACIFIC NORTHWEST NATIONAL LABORATORY).

          --------------------
          2 ELECTRON INTEGRALS
          --------------------

 THE -PK- OPTION IS OFF, THE INTEGRALS ARE NOT IN SUPERMATRIX FORM.
 STORING   15000 INTEGRALS/RECORD ON DISK, USING 12 BYTES/INTEGRAL.
 TWO ELECTRON INTEGRAL EVALUATION REQUIRES  101180 WORDS OF MEMORY.
 SCHWARZ INEQUALITY OVERHEAD:     22128 INTEGRALS, T=        0.01
 II,JST,KST,LST =  1  1  1  1 NREC =         1 INTLOC =    1
 II,JST,KST,LST =  2  1  1  1 NREC =         1 INTLOC =    2
 II,JST,KST,LST =  3  1  1  1 NREC =         1 INTLOC =    7
 II,JST,KST,LST =  4  1  1  1 NREC =         1 INTLOC =   22
 II,JST,KST,LST =  5  1  1  1 NREC =         1 INTLOC =   56
 II,JST,KST,LST =  6  1  1  1 NREC =         1 INTLOC =  125
 II,JST,KST,LST =  7  1  1  1 NREC =         1 INTLOC =  329
 II,JST,KST,LST =  8  1  1  1 NREC =         1 INTLOC =  776
 II,JST,KST,LST =  9  1  1  1 NREC =         1 INTLOC = 2864
 II,JST,KST,LST = 10  1  1  1 NREC =         1 INTLOC = 7967
 II,JST,KST,LST = 11  1  1  1 NREC =         2 INTLOC =12194
 II,JST,KST,LST = 12  1  1  1 NREC =         3 INTLOC =  731
 II,JST,KST,LST = 13  1  1  1 NREC =         3 INTLOC =11855
 II,JST,KST,LST = 14  1  1  1 NREC =         5 INTLOC =12962
 II,JST,KST,LST = 15  1  1  1 NREC =        11 INTLOC = 7589
 II,JST,KST,LST = 16  1  1  1 NREC =        17 INTLOC = 5422
 II,JST,KST,LST = 17  1  1  1 NREC =        23 INTLOC = 8035
 II,JST,KST,LST = 18  1  1  1 NREC =        30 INTLOC =  527
 II,JST,KST,LST = 19  1  1  1 NREC =        51 INTLOC = 9629
 II,JST,KST,LST = 20  1  1  1 NREC =        76 INTLOC = 9323
 II,JST,KST,LST = 21  1  1  1 NREC =       137 INTLOC =13675
 II,JST,KST,LST = 22  1  1  1 NREC =       149 INTLOC = 8879
 II,JST,KST,LST = 23  1  1  1 NREC =       187 INTLOC =14990
 II,JST,KST,LST = 24  1  1  1 NREC =       279 INTLOC = 3878
 II,JST,KST,LST = 25  1  1  1 NREC =       296 INTLOC =14639
 II,JST,KST,LST = 26  1  1  1 NREC =       315 INTLOC = 5363
 II,JST,KST,LST = 27  1  1  1 NREC =       334 INTLOC = 6295
 II,JST,KST,LST = 28  1  1  1 NREC =       395 INTLOC =12664
 II,JST,KST,LST = 29  1  1  1 NREC =       463 INTLOC =14606
 II,JST,KST,LST = 30  1  1  1 NREC =       622 INTLOC = 1419
 II,JST,KST,LST = 31  1  1  1 NREC =       651 INTLOC = 6982
 II,JST,KST,LST = 32  1  1  1 NREC =       745 INTLOC = 1636
 II,JST,KST,LST = 33  1  1  1 NREC =       958 INTLOC =10567
 II,JST,KST,LST = 34  1  1  1 NREC =       985 INTLOC =11985
 II,JST,KST,LST = 35  1  1  1 NREC =      1021 INTLOC =13567
 II,JST,KST,LST = 36  1  1  1 NREC =      1049 INTLOC = 4452
 II,JST,KST,LST = 37  1  1  1 NREC =      1091 INTLOC = 3227
 II,JST,KST,LST = 38  1  1  1 NREC =      1176 INTLOC =10155
 II,JST,KST,LST = 39  1  1  1 NREC =      1303 INTLOC = 6968
 II,JST,KST,LST = 40  1  1  1 NREC =      1455 INTLOC = 3091
 II,JST,KST,LST = 41  1  1  1 NREC =      1684 INTLOC = 2697
 II,JST,KST,LST = 42  1  1  1 NREC =      2035 INTLOC =14884
 II,JST,KST,LST = 43  1  1  1 NREC =      2604 INTLOC = 4972
 II,JST,KST,LST = 44  1  1  1 NREC =      2687 INTLOC = 9110
 II,JST,KST,LST = 45  1  1  1 NREC =      2944 INTLOC =13907
 II,JST,KST,LST = 46  1  1  1 NREC =      3506 INTLOC =13641
 II,JST,KST,LST = 47  1  1  1 NREC =      4559 INTLOC = 6919
 II,JST,KST,LST = 48  1  1  1 NREC =      4664 INTLOC =11461
 II,JST,KST,LST = 49  1  1  1 NREC =      4795 INTLOC =11640
 II,JST,KST,LST = 50  1  1  1 NREC =      4931 INTLOC = 6921
 II,JST,KST,LST = 51  1  1  1 NREC =      5269 INTLOC =  276
 II,JST,KST,LST = 52  1  1  1 NREC =      5704 INTLOC =12552
 II,JST,KST,LST = 53  1  1  1 NREC =      6531 INTLOC = 4275
 II,JST,KST,LST = 54  1  1  1 NREC =      6700 INTLOC = 4890
 II,JST,KST,LST = 55  1  1  1 NREC =      7228 INTLOC = 3249
 II,JST,KST,LST = 56  1  1  1 NREC =      8364 INTLOC =12068
 II,JST,KST,LST = 57  1  1  1 NREC =      8513 INTLOC =12495
 II,JST,KST,LST = 58  1  1  1 NREC =      8708 INTLOC =14584
 II,JST,KST,LST = 59  1  1  1 NREC =      8917 INTLOC = 5924
 II,JST,KST,LST = 60  1  1  1 NREC =      9385 INTLOC =10243
 II,JST,KST,LST = 61  1  1  1 NREC =     10011 INTLOC = 1866
 II,JST,KST,LST = 62  1  1  1 NREC =     11126 INTLOC = 4579
 II,JST,KST,LST = 63  1  1  1 NREC =     11377 INTLOC =10734
 II,JST,KST,LST = 64  1  1  1 NREC =     12153 INTLOC =11947
 SCHWARZ INEQUALITY TEST SKIPPED      153744 INTEGRAL BLOCKS.
 TOTAL NUMBER OF NONZERO TWO-ELECTRON INTEGRALS =           206809338
      13788 INTEGRAL RECORDS WERE STORED ON DISK FILE  8.
  ...... END OF TWO-ELECTRON INTEGRALS .....
 STEP CPU TIME =     8.93 TOTAL CPU TIME =          9.0 (      0.2 MIN)
 TOTAL WALL CLOCK TIME=         10.3 SECONDS, CPU UTILIZATION IS    88.11%

          --------------------------
             R-B3LYP SCF CALCULATION
          --------------------------

     NUCLEAR ENERGY =        37.1362145862
     MAXIT =   30     NPUNCH=    2
     EXTRAP=T  DAMP=F  SHIFT=F  RSTRCT=F  DIIS=T  DEM=F  SOSCF=F
         DENSITY MATRIX CONVERGENCE THRESHOLD=  1.00E-05
     COARSE -> FINE DFT GRID SWITCH THRESHOLD=  3.00E-04 (SWITCH IN $DFT)
                   HF -> DFT SWITCH THRESHOLD=  5.00E-03 (SWOFF IN $DFT)
     MEMORY REQUIRED FOR RHF ITERS=    591297 WORDS.

 DFT CODE IS SWITCHING FROM THE FINE GRID NRAD= 96,  NLEB=  302
                      TO THE COARSE GRID NRAD0= 24, NLEB0=  110

     EXCHANGE FUNCTIONAL   =B88&HFX   
     CORRELATION FUNCTIONAL=LYP88&VWN5
     DFT THRESHOLD         =.230E-07
     GRID CHANGE THRESHOLD =.300E-03
 FOR AN EULER-MACLAURIN QUADRATURE USING  96 RADIAL POINTS:
 SMALLEST GAUSSIAN PRIMITIVE EXPONENT=        0.0252600000 OF TYPE -S-
 ON ATOM NUMBER   2 HAS RADIAL NORMALIZATION=  1.000000
  LARGEST GAUSSIAN PRIMITIVE EXPONENT=    15330.0000000000 OF TYPE -S-
 ON ATOM NUMBER   1 HAS RADIAL NORMALIZATION=  1.000000
 DFT IS SWITCHED OFF, PERFORMING PURE SCF UNTIL SWOFF THRESHOLD IS REACHED.

 ITER EX DEM     TOTAL ENERGY        E CHANGE  DENSITY CHANGE    DIIS ERROR
          * * *   INITIATING DIIS PROCEDURE   * * *
   1  0  0     -151.5474334074  -151.5474334074   0.683431932   0.374062810
   2  1  0     -152.0903718657    -0.5429384583   0.089623640   0.059773656
   3  2  0     -152.1200341690    -0.0296623033   0.021159727   0.021383749
   4  3  0     -152.1232110787    -0.0031769097   0.004398035   0.006394194
 CONVERGED TO SWOFF, SO DFT CALCULATION IS NOW SWITCHED ON.
          * * *   INITIATING DIIS PROCEDURE   * * *
   5  4  0     -152.8481335875    -0.7249225088   0.030049317   0.038481921
   6  5  0     -152.8637337695    -0.0156001820   0.008680760   0.006459421
   7  6  0     -152.8635371061     0.0001966633   0.004570397   0.008417604
   8  7  0     -152.8640142895    -0.0004771833   0.000913463   0.001916058
   9  8  0     -152.8640420962    -0.0000278067   0.000079065   0.000116833
 DFT CODE IS SWITCHING BACK TO THE FINE GRID
          * * *   INITIATING DIIS PROCEDURE   * * *
  10  9  0     -152.8638845105     0.0001575857   0.003034235   0.001219142
  11 10  0     -152.8638926731    -0.0000081626   0.000186579   0.000192897
  12 11  0     -152.8638923531     0.0000003199   0.000109409   0.000340491
  13 12  0     -152.8638929060    -0.0000005529   0.000006688   0.000007698
  14 13  0     -152.8638929068    -0.0000000008   0.000001253   0.000002216
  15 14  0     -152.8638929069    -0.0000000000   0.000000559   0.000000776

          -----------------
          DENSITY CONVERGED
          -----------------
     TIME TO FORM FOCK OPERATORS=      62.6 SECONDS (       4.2 SEC/ITER)
     TIME TO SOLVE SCF EQUATIONS=       1.1 SECONDS (       0.1 SEC/ITER)

 FINAL R-B3LYP ENERGY IS     -152.8638929069 AFTER  15 ITERATIONS
 DFT EXCHANGE + CORRELATION ENERGY =       -15.0171552902
 TOTAL ELECTRON NUMBER             =        19.9999845215

          ------------
          EIGENVECTORS
          ------------

                      1          2          3          4          5
                  -19.1587   -19.1104    -1.0378    -0.9894    -0.5614
                     A          A          A          A          A   
    1  O  1  S   -0.000060   0.971975  -0.002218  -0.019334  -0.000316
    2  O  1  S   -0.000071  -0.001505   0.048229   0.485604   0.012083
    3  O  1  S   -0.000028   0.051157   0.013955   0.141599   0.003749
    4  O  1  S    0.001044   0.006958   0.029903   0.283640   0.006751
    5  O  1  X   -0.000012   0.000794   0.005716   0.034594  -0.049780
    6  O  1  Y   -0.000000   0.000771   0.002265   0.034346   0.032911
    7  O  1  Z   -0.000009   0.000864   0.003439   0.038496   0.022152
    8  O  1  X    0.000097   0.000303   0.006631   0.043177  -0.054044
    9  O  1  Y    0.000035   0.000485   0.002980   0.040426   0.035778
   10  O  1  Z    0.000074   0.000524   0.004585   0.045666   0.023818
   11  O  1  X    0.001431   0.000031   0.004032   0.014591  -0.021845
   12  O  1  Y   -0.000646   0.000002  -0.000648   0.009061   0.015981
   13  O  1  Z   -0.000150   0.000052   0.002356   0.011302   0.009019
   14  O  1 XX   -0.000003   0.000201   0.000348   0.001994  -0.001996
   15  O  1 YY    0.000003  -0.000086  -0.000169  -0.000885   0.001038
   16  O  1 ZZ    0.000000  -0.000115  -0.000179  -0.001108   0.000958
   17  O  1 XY    0.000020  -0.000183  -0.000102  -0.001240  -0.000179
   18  O  1 XZ    0.000005  -0.000108  -0.000010  -0.000428  -0.000633
   19  O  1 YZ   -0.000003   0.000306   0.000304   0.003385   0.001194
   20  O  1 XX    0.000096  -0.000162   0.000687   0.004406  -0.002318
   21  O  1 YY   -0.000045   0.000075  -0.000217  -0.002080   0.001201
   22  O  1 ZZ   -0.000051   0.000087  -0.000470  -0.002326   0.001117
   23  O  1 XY   -0.000126   0.000163  -0.000964  -0.001062   0.000338
   24  O  1 XZ   -0.000037   0.000129  -0.000005   0.000594  -0.000443
   25  O  1 YZ    0.000059  -0.000046   0.000910   0.006965   0.001339
   26  O  1 XXX   0.000013   0.000301   0.000225   0.001590  -0.000107
   27  O  1 YYY   0.000001  -0.000028   0.000038  -0.000251  -0.000371
   28  O  1 ZZZ  -0.000008  -0.000084  -0.000078  -0.000561  -0.000254
   29  O  1 XXY   0.000001  -0.000105  -0.000187  -0.000479   0.000527
   30  O  1 XXZ   0.000005  -0.000031   0.000001  -0.000036   0.000222
   31  O  1 YYX   0.000007  -0.000210  -0.000126  -0.001112  -0.000029
   32  O  1 YYZ   0.000006   0.000144   0.000104   0.000788   0.000119
   33  O  1 ZZX  -0.000025  -0.000193  -0.000177  -0.001021   0.000173
   34  O  1 ZZY  -0.000002   0.000142   0.000136   0.000816  -0.000029
   35  O  1 XYZ  -0.000014  -0.000124  -0.000083  -0.000388  -0.000276
   36  O  1  S    0.000059   0.001762   0.001812   0.039029   0.000021
   37  O  1  X    0.000250   0.000032  -0.000242   0.004053  -0.001298
   38  O  1  Y   -0.000194   0.000146   0.000019   0.000625   0.000699
   39  O  1  Z   -0.000100   0.000036  -0.000022   0.000839   0.001250
   40  O  1 XX    0.000533  -0.000646   0.000437  -0.002448   0.002306
   41  O  1 YY   -0.000350   0.000278  -0.000199   0.000804  -0.001099
   42  O  1 ZZ   -0.000183   0.000368  -0.000238   0.001644  -0.001207
   43  O  1 XY   -0.000272   0.000412  -0.000973   0.002932   0.001012
   44  O  1 XZ   -0.000066   0.000192  -0.000039   0.001862   0.000780
   45  O  1 YZ    0.000036  -0.000310   0.000499  -0.001647  -0.001396
   46  O  1 XXX   0.000040  -0.000878  -0.000195  -0.001189   0.000347
   47  O  1 YYY   0.000035   0.000028   0.000115  -0.000468   0.000157
   48  O  1 ZZZ   0.000032   0.000208   0.000061  -0.000089  -0.000136
   49  O  1 XXY  -0.000096   0.000288  -0.000312   0.000712  -0.000110
   50  O  1 XXZ  -0.000063   0.000058  -0.000160   0.000350   0.000090
   51  O  1 YYX  -0.000081   0.000608   0.000095   0.000735  -0.000169
   52  O  1 YYZ   0.000020  -0.000336   0.000078  -0.000231   0.000092
   53  O  1 ZZX   0.000027   0.000569   0.000166   0.000860  -0.000297
   54  O  1 ZZY   0.000048  -0.000326   0.000158  -0.000085  -0.000101
   55  O  1 XYZ   0.000047   0.000402   0.000173   0.001052  -0.000129
   56  H  2  S    0.000031   0.000804   0.014205   0.089903  -0.034463
   57  H  2  S   -0.002158  -0.000512   0.010045   0.073702  -0.055026
   58  H  2  S    0.001201  -0.003270   0.000930  -0.025476  -0.011082
   59  H  2  X    0.000005   0.000054  -0.000946  -0.013024   0.002683
   60  H  2  Y    0.000007  -0.000052  -0.000337   0.001473   0.001189
   61  H  2  Z   -0.000013  -0.000050  -0.000026  -0.000138   0.000863
   62  H  2  X    0.000263   0.001419   0.000535  -0.008999   0.002008
   63  H  2  Y    0.000391  -0.000222   0.000626   0.000259   0.005260
   64  H  2  Z    0.000242   0.000018   0.000218  -0.000153   0.001390
   65  H  2 XX   -0.000078  -0.000941   0.000425   0.002922  -0.001475
   66  H  2 YY    0.000022   0.000476  -0.000096  -0.001421   0.000302
   67  H  2 ZZ    0.000057   0.000465  -0.000329  -0.001501   0.001173
   68  H  2 XY    0.000024   0.000146  -0.000525  -0.000269   0.000784
   69  H  2 XZ   -0.000019  -0.000066  -0.000011   0.000258  -0.000162
   70  H  2 YZ   -0.000019  -0.000019  -0.000027  -0.000045  -0.000181
   71  H  2  S   -0.000071   0.000266  -0.001033  -0.001828   0.003306
   72  H  2  X   -0.000961   0.002187  -0.004684   0.015346   0.002990
   73  H  2  Y    0.000329   0.000019   0.002604  -0.002140  -0.002606
   74  H  2  Z    0.000377   0.000038   0.000719   0.000094  -0.002414
   75  H  2 XX    0.000357  -0.000291   0.000864  -0.002796   0.000648
   76  H  2 YY    0.000130   0.000123  -0.000127   0.001811  -0.001601
   77  H  2 ZZ   -0.000487   0.000168  -0.000737   0.000985   0.000953
   78  H  2 XY   -0.000623  -0.000129  -0.001521   0.000352   0.001059
   79  H  2 XZ   -0.000183  -0.000070  -0.000012  -0.000079   0.000207
   80  H  2 YZ    0.000012  -0.000010  -0.000076  -0.000036   0.000716
   81  H  3  S   -0.000014   0.000847   0.008689   0.096407   0.033272
   82  H  3  S   -0.000309  -0.001649   0.003848   0.084536   0.050441
   83  H  3  S   -0.000671  -0.001006  -0.004491   0.000851   0.016718
   84  H  3  X    0.000002  -0.000117   0.000431   0.004644   0.000244
   85  H  3  Y    0.000017   0.000117  -0.000790  -0.009591  -0.002669
   86  H  3  Z    0.000015   0.000109  -0.000692  -0.008945  -0.002721
   87  H  3  X   -0.000261  -0.000823  -0.000415   0.003325   0.000097
   88  H  3  Y    0.000145   0.001195   0.000230  -0.008015  -0.004840
   89  H  3  Z    0.000132   0.001056   0.000191  -0.007654  -0.004814
   90  H  3 XX    0.000005   0.000360  -0.000048  -0.001470  -0.000808
   91  H  3 YY    0.000004  -0.000229   0.000058   0.000878   0.000445
   92  H  3 ZZ   -0.000009  -0.000132  -0.000010   0.000592   0.000363
   93  H  3 XY    0.000026   0.000407  -0.000026  -0.001221  -0.000384
   94  H  3 XZ   -0.000000   0.000372  -0.000070  -0.001199  -0.000306
   95  H  3 YZ   -0.000018  -0.000860   0.000107   0.002821   0.001513
   96  H  3  S    0.000091  -0.000224   0.000460  -0.000976  -0.001817
   97  H  3  X   -0.000408  -0.000084  -0.001133  -0.000328   0.001162
   98  H  3  Y    0.000170   0.000332   0.000847   0.001726   0.000135
   99  H  3  Z    0.000065   0.000447   0.000840   0.001860  -0.000603
  100  H  3 XX   -0.000065   0.000130   0.000053   0.000610  -0.000375
  101  H  3 YY    0.000034  -0.000069   0.000004  -0.000378   0.000068
  102  H  3 ZZ    0.000031  -0.000061  -0.000057  -0.000232   0.000307
  103  H  3 XY    0.000036   0.000124   0.000051   0.000470   0.000351
  104  H  3 XZ    0.000101   0.000161   0.000190   0.000722  -0.000062
  105  H  3 YZ   -0.000048  -0.000190  -0.000150  -0.000698  -0.000010
  106  O  4  S    0.972021   0.000013  -0.019404   0.002011  -0.000074
  107  O  4  S   -0.001416  -0.000019   0.485748  -0.055162  -0.004479
  108  O  4  S    0.051194  -0.000009   0.141611  -0.016329  -0.000778
  109  O  4  S    0.004044   0.000853   0.279687  -0.028777  -0.024054
  110  O  4  X    0.000186  -0.000013   0.009803  -0.004709   0.241786
  111  O  4  Y   -0.001088   0.000008  -0.046420   0.007339   0.118282
  112  O  4  Z    0.000913  -0.000010   0.038523  -0.005045   0.112650
  113  O  4  X    0.000333   0.000088   0.010494  -0.005192   0.262157
  114  O  4  Y   -0.000402  -0.000026  -0.056234   0.008971   0.127642
  115  O  4  Z    0.000350   0.000074   0.045913  -0.005520   0.120623
  116  O  4  X    0.000260   0.001076  -0.002533   0.002208   0.105987
  117  O  4  Y    0.000951  -0.000275  -0.013583   0.003856   0.054081
  118  O  4  Z   -0.000074   0.000705   0.013008   0.000853   0.044856
  119  O  4 XX    0.000133   0.000004   0.000740  -0.000011   0.002218
  120  O  4 YY    0.000011  -0.000005   0.000439  -0.000067  -0.006315
  121  O  4 ZZ   -0.000144   0.000001  -0.001178   0.000078   0.004097
  122  O  4 XY    0.000220   0.000001   0.002130  -0.000256  -0.005823
  123  O  4 XZ    0.000326  -0.000008   0.003062  -0.000439   0.005977
  124  O  4 YZ   -0.000060   0.000001  -0.001326   0.000187  -0.000334
  125  O  4 XX   -0.000173  -0.000006   0.000756   0.000545   0.000752
  126  O  4 YY   -0.000069  -0.000010   0.001927  -0.000556  -0.006343
  127  O  4 ZZ    0.000242   0.000015  -0.002683   0.000011   0.005591
  128  O  4 XY   -0.000171  -0.000018   0.003377  -0.001084  -0.006365
  129  O  4 XZ   -0.000206   0.000102   0.005685  -0.000391   0.006307
  130  O  4 YZ   -0.000074  -0.000016  -0.003959   0.000455  -0.000325
  131  O  4 XXX   0.000073  -0.000023   0.000349  -0.000120   0.000012
  132  O  4 YYY   0.000012  -0.000004  -0.000041  -0.000036  -0.000628
  133  O  4 ZZZ  -0.000075   0.000002  -0.000550   0.000061  -0.000989
  134  O  4 XXY  -0.000107  -0.000008  -0.000404   0.000142   0.001325
  135  O  4 XXZ   0.000178   0.000001   0.000857  -0.000085   0.001566
  136  O  4 YYX  -0.000302   0.000037  -0.001652   0.000206   0.000299
  137  O  4 YYZ  -0.000078  -0.000004  -0.000119   0.000003  -0.000239
  138  O  4 ZZX   0.000204  -0.000006   0.001183  -0.000045  -0.000315
  139  O  4 ZZY   0.000091   0.000014   0.000459  -0.000093  -0.000483
  140  O  4 XYZ  -0.000019   0.000004  -0.000210   0.000020   0.000829
  141  O  4  S    0.001488   0.000188   0.037921  -0.008095  -0.012726
  142  O  4  X    0.000161  -0.000011  -0.001718   0.001683   0.006551
  143  O  4  Y    0.000157  -0.000379  -0.000517  -0.001433   0.001700
  144  O  4  Z    0.000118   0.000087   0.001750   0.000011   0.001835
  145  O  4 XX   -0.000113   0.000023  -0.000738   0.000678  -0.001784
  146  O  4 YY   -0.000151  -0.000139   0.000921  -0.000899   0.004875
  147  O  4 ZZ    0.000264   0.000116  -0.000184   0.000221  -0.003091
  148  O  4 XY   -0.000889  -0.000059  -0.003100  -0.001001   0.003909
  149  O  4 XZ   -0.000432   0.000342  -0.002109   0.001478  -0.007114
  150  O  4 YZ    0.000058  -0.000062  -0.000548   0.000088   0.001695
  151  O  4 XXX  -0.000297   0.000082  -0.000679   0.000229   0.000134
  152  O  4 YYY   0.000020   0.000008  -0.000388   0.000209   0.000412
  153  O  4 ZZZ   0.000193  -0.000023  -0.000265  -0.000006  -0.000476
  154  O  4 XXY   0.000314   0.000024   0.001255  -0.000261   0.000144
  155  O  4 XXZ  -0.000530   0.000048  -0.000668   0.000207   0.000768
  156  O  4 YYX   0.000958  -0.000129   0.000730  -0.000287   0.000190
  157  O  4 YYZ   0.000271  -0.000017   0.001023  -0.000199  -0.000129
  158  O  4 ZZX  -0.000560   0.000019   0.000181  -0.000020  -0.000369
  159  O  4 ZZY  -0.000340  -0.000034  -0.000734  -0.000019  -0.000696
  160  O  4 XYZ   0.000010  -0.000037  -0.000291  -0.000100  -0.000224
  161  H  5  S    0.000816  -0.000031   0.090974  -0.010138  -0.137956
  162  H  5  S    0.000713  -0.000009   0.075318  -0.006769  -0.212006
  163  H  5  S   -0.001403   0.000774  -0.013092   0.006769  -0.054204
  164  H  5  X   -0.000084   0.000012   0.007571  -0.000969  -0.005313
  165  H  5  Y    0.000019   0.000004   0.010651  -0.001052  -0.013486
  166  H  5  Z   -0.000047   0.000011  -0.000116   0.000023   0.003537
  167  H  5  X   -0.000501  -0.000155   0.005830  -0.001153  -0.008487
  168  H  5  Y   -0.000837   0.000086   0.007962  -0.000281  -0.028535
  169  H  5  Z   -0.000085  -0.000017  -0.000233   0.000014   0.007950
  170  H  5 XX    0.000027  -0.000012  -0.000180   0.000042   0.001279
  171  H  5 YY   -0.000480   0.000029   0.001680  -0.000149  -0.004751
  172  H  5 ZZ    0.000453  -0.000017  -0.001499   0.000107   0.003472
  173  H  5 XY   -0.000743  -0.000016   0.002436  -0.000365  -0.005062
  174  H  5 XZ    0.000000  -0.000004  -0.000207  -0.000002   0.000811
  175  H  5 YZ    0.000056   0.000002  -0.000196   0.000051   0.001565
  176  H  5  S   -0.000021  -0.000079  -0.001650   0.000296   0.002520
  177  H  5  X   -0.000029  -0.000086  -0.002349   0.000422   0.002409
  178  H  5  Y   -0.000856   0.000484  -0.005785   0.002728  -0.001160
  179  H  5  Z    0.000024   0.000094   0.000176   0.000119   0.002220
  180  H  5 XX    0.000022   0.000032  -0.000080   0.000272   0.002134
  181  H  5 YY   -0.000272   0.000037  -0.000659   0.000021  -0.003076
  182  H  5 ZZ    0.000250  -0.000068   0.000739  -0.000293   0.000941
  183  H  5 XY    0.000015  -0.000077  -0.000305  -0.000165  -0.000918
  184  H  5 XZ    0.000037   0.000014   0.000166   0.000105   0.001770
  185  H  5 YZ    0.000006   0.000017  -0.000057  -0.000030   0.000758
  186  H  6  S    0.000829   0.000005   0.094652  -0.012341   0.147026
  187  H  6  S   -0.000809  -0.001433   0.081440  -0.016924   0.238363
  188  H  6  S   -0.002064  -0.001119  -0.009018  -0.003402   0.067541
  189  H  6  X    0.000154   0.000022  -0.010529   0.001405  -0.010335
  190  H  6  Y    0.000045  -0.000003   0.000761  -0.000046   0.005068
  191  H  6  Z    0.000079   0.000026  -0.008855   0.001267  -0.011530
  192  H  6  X    0.001127   0.000248  -0.008451   0.002217  -0.021985
  193  H  6  Y    0.000079  -0.000011   0.000967  -0.000001   0.011056
  194  H  6  Z    0.000832   0.000240  -0.007426   0.002320  -0.023845
  195  H  6 XX   -0.000382  -0.000010   0.001199  -0.000193   0.001854
  196  H  6 YY    0.000490   0.000026  -0.001784   0.000360  -0.003486
  197  H  6 ZZ   -0.000108  -0.000017   0.000585  -0.000168   0.001633
  198  H  6 XY    0.000086  -0.000010  -0.000604   0.000046  -0.001948
  199  H  6 XZ   -0.000897  -0.000020   0.002967  -0.000521   0.006721
  200  H  6 YZ    0.000117   0.000011  -0.000352   0.000025  -0.001913
  201  H  6  S   -0.000120  -0.000023  -0.001045   0.000346  -0.003027
  202  H  6  X    0.000543   0.000381   0.004090   0.000615   0.000885
  203  H  6  Y   -0.000095   0.000068  -0.001014   0.000503   0.003714
  204  H  6  Z    0.000625   0.000077   0.003138   0.000177  -0.000128
  205  H  6 XX   -0.000087   0.000008  -0.000525   0.000356  -0.000451
  206  H  6 YY    0.000136  -0.000030   0.000530  -0.000253  -0.000465
  207  H  6 ZZ   -0.000049   0.000022  -0.000004  -0.000104   0.000917
  208  H  6 XY    0.000098  -0.000002   0.000392  -0.000034  -0.001818
  209  H  6 XZ   -0.000182   0.000055  -0.000840   0.000247   0.001080
  210  H  6 YZ   -0.000036  -0.000017   0.000065  -0.000299  -0.001011

                      6          7          8          9         10
                   -0.5145    -0.4178    -0.3722    -0.3409    -0.2971
                     A          A          A          A          A   
    1  O  1  S    0.000214   0.000133  -0.000726  -0.000340   0.000083
    2  O  1  S    0.006324  -0.056806   0.175692   0.039261  -0.002528
    3  O  1  S    0.001611  -0.016889   0.052109   0.011170  -0.000686
    4  O  1  S    0.017282  -0.084851   0.310219   0.106256  -0.006951
    5  O  1  X    0.225137  -0.022376  -0.176408  -0.114928  -0.018648
    6  O  1  Y   -0.134879   0.060327  -0.152757  -0.074058  -0.250003
    7  O  1  Z   -0.107596   0.053995  -0.181550  -0.023667   0.259788
    8  O  1  X    0.245196  -0.024480  -0.200010  -0.130025  -0.021907
    9  O  1  Y   -0.145796   0.066502  -0.171757  -0.085571  -0.294684
   10  O  1  Z   -0.116153   0.059376  -0.205149  -0.025492   0.305440
   11  O  1  X    0.109640  -0.014743  -0.119106  -0.074722  -0.017012
   12  O  1  Y   -0.064791   0.036256  -0.092484  -0.056697  -0.220344
   13  O  1  Z   -0.049546   0.030242  -0.116255  -0.009464   0.226233
   14  O  1 XX    0.008415  -0.001347  -0.001285  -0.001484  -0.000382
   15  O  1 YY   -0.004446   0.000709   0.000932   0.000404  -0.003757
   16  O  1 ZZ   -0.003969   0.000638   0.000353   0.001080   0.004139
   17  O  1 XY    0.001572  -0.000120  -0.001773  -0.001404  -0.002390
   18  O  1 XZ    0.002680  -0.000203  -0.002686  -0.001057   0.002081
   19  O  1 YZ   -0.005034   0.001874  -0.004340  -0.001184  -0.000183
   20  O  1 XX    0.010932  -0.002204   0.001188  -0.000783  -0.000894
   21  O  1 YY   -0.005739   0.001092   0.000475  -0.000089  -0.009209
   22  O  1 ZZ   -0.005193   0.001112  -0.001664   0.000872   0.010103
   23  O  1 XY    0.001624   0.000446  -0.008076  -0.006853  -0.004827
   24  O  1 XZ    0.003341   0.000351  -0.009555  -0.003882   0.005113
   25  O  1 YZ   -0.006149   0.002235  -0.005587  -0.001108  -0.000885
   26  O  1 XXX   0.000488   0.000078  -0.001094  -0.000531  -0.000367
   27  O  1 YYY   0.001024  -0.000247   0.000713   0.000276  -0.000593
   28  O  1 ZZZ   0.000947  -0.000309   0.000972   0.000201   0.000307
   29  O  1 XXY  -0.001220   0.000049   0.000296  -0.000307  -0.001428
   30  O  1 XXZ  -0.000783   0.000102  -0.000311   0.000329   0.001679
   31  O  1 YYX  -0.000082  -0.000082   0.000758   0.000531   0.001069
   32  O  1 YYZ  -0.000488   0.000313  -0.000994  -0.000599  -0.002091
   33  O  1 ZZX  -0.000573  -0.000023   0.000709   0.000182  -0.000577
   34  O  1 ZZY  -0.000154   0.000283  -0.001252  -0.000063   0.002223
   35  O  1 XYZ   0.001391  -0.000254  -0.000465  -0.000517  -0.000382
   36  O  1  S    0.007533  -0.030655   0.122762   0.046312   0.004575
   37  O  1  X    0.007823  -0.005861  -0.006691  -0.007827  -0.001175
   38  O  1  Y   -0.004074   0.005031  -0.014834  -0.008626  -0.040497
   39  O  1  Z   -0.003797   0.002092  -0.012485  -0.003545   0.042695
   40  O  1 XX   -0.003915  -0.000101   0.003302   0.002560  -0.001390
   41  O  1 YY    0.002102  -0.000189   0.000577  -0.001272  -0.002342
   42  O  1 ZZ    0.001812   0.000290  -0.003879  -0.001289   0.003731
   43  O  1 XY   -0.001670   0.000497  -0.004683  -0.004126  -0.000745
   44  O  1 XZ   -0.001199  -0.000166  -0.005168  -0.002683   0.000769
   45  O  1 YZ    0.002791  -0.000459   0.005846   0.002283  -0.002224
   46  O  1 XXX   0.000536  -0.000461   0.001340   0.000150  -0.000218
   47  O  1 YYY   0.000291   0.000018   0.000152   0.000047  -0.000633
   48  O  1 ZZZ   0.000281  -0.000105   0.000212  -0.000004   0.000222
   49  O  1 XXY  -0.000053   0.000009  -0.000344  -0.000596   0.000015
   50  O  1 XXZ   0.000265  -0.000032  -0.000343  -0.000393   0.000441
   51  O  1 YYX  -0.000407   0.000113  -0.000359  -0.000269   0.000602
   52  O  1 YYZ  -0.000641   0.000173   0.000059   0.000398  -0.000738
   53  O  1 ZZX  -0.000312   0.000505  -0.001439   0.000068  -0.000309
   54  O  1 ZZY  -0.000338  -0.000033   0.000141   0.000533   0.000833
   55  O  1 XYZ   0.000485  -0.000028  -0.000921  -0.001011  -0.000389
   56  H  2  S    0.139784  -0.004808  -0.078399  -0.037706   0.002487
   57  H  2  S    0.205730   0.007683  -0.149641  -0.073756   0.006098
   58  H  2  S    0.049453   0.007879  -0.091972  -0.042993  -0.016463
   59  H  2  X   -0.014135   0.004584   0.005161   0.006655  -0.001702
   60  H  2  Y   -0.001730   0.000475  -0.004806  -0.004039  -0.007169
   61  H  2  Z   -0.003449   0.001196  -0.004823   0.000244   0.007628
   62  H  2  X   -0.026041   0.009399   0.019000   0.021013  -0.003630
   63  H  2  Y   -0.003749   0.002556  -0.014074  -0.008488  -0.021450
   64  H  2  Z   -0.007221   0.002784  -0.013643   0.002524   0.021299
   65  H  2 XX    0.006923   0.000022  -0.002712  -0.001540   0.000801
   66  H  2 YY   -0.003558   0.000206   0.001035   0.001101  -0.000498
   67  H  2 ZZ   -0.003365  -0.000228   0.001677   0.000439  -0.000303
   68  H  2 XY    0.000325  -0.001633   0.002261  -0.000311   0.003408
   69  H  2 XZ    0.001746  -0.001015   0.001428   0.000257  -0.003333
   70  H  2 YZ    0.000081   0.000300  -0.000008  -0.000354   0.000453
   71  H  2  S   -0.006061  -0.007678  -0.008677  -0.015844   0.001802
   72  H  2  X   -0.000451  -0.009588   0.005321  -0.010701  -0.008641
   73  H  2  Y    0.003314   0.012321  -0.013115   0.007082  -0.012790
   74  H  2  Z   -0.000406   0.005555  -0.012042   0.006173   0.017576
   75  H  2 XX    0.000236  -0.000476  -0.000048  -0.001221  -0.001011
   76  H  2 YY    0.000699  -0.000353  -0.003117   0.000974  -0.001865
   77  H  2 ZZ   -0.000935   0.000830   0.003165   0.000247   0.002876
   78  H  2 XY    0.000338   0.001233   0.009299  -0.000285   0.010370
   79  H  2 XZ    0.001909  -0.000521   0.003695  -0.002215  -0.007774
   80  H  2 YZ   -0.000356  -0.000270  -0.002616   0.001031   0.001713
   81  H  3  S   -0.141140   0.043835  -0.079117  -0.012790   0.000327
   82  H  3  S   -0.216522   0.077064  -0.160153  -0.040606   0.006312
   83  H  3  S   -0.066686   0.020100  -0.072390  -0.032182  -0.002483
   84  H  3  X   -0.000237   0.001177  -0.008335  -0.003773  -0.000559
   85  H  3  Y    0.010774  -0.002486   0.002911  -0.000771  -0.007988
   86  H  3  Z    0.010595  -0.002349   0.001521   0.000787   0.007982
   87  H  3  X    0.001263   0.004411  -0.022009  -0.012669  -0.000427
   88  H  3  Y    0.020218  -0.005992   0.011048   0.001618  -0.022607
   89  H  3  Z    0.020051  -0.005646   0.007345   0.005206   0.020699
   90  H  3 XX    0.003386  -0.000542  -0.000198  -0.000463  -0.000199
   91  H  3 YY   -0.001896   0.000345  -0.000302   0.000634   0.004020
   92  H  3 ZZ   -0.001490   0.000197   0.000501  -0.000170  -0.003820
   93  H  3 XY    0.001449  -0.000719   0.002593   0.001130  -0.000924
   94  H  3 XZ    0.001312  -0.000731   0.002422   0.001012   0.001116
   95  H  3 YZ   -0.006213   0.001598  -0.001748  -0.000221  -0.000073
   96  H  3  S    0.004021   0.003158   0.001379   0.004503  -0.000344
   97  H  3  X    0.002897  -0.001958  -0.009643  -0.011523  -0.002413
   98  H  3  Y   -0.001082   0.001906  -0.003652  -0.002188  -0.018542
   99  H  3  Z    0.000582   0.003457  -0.008228   0.003318   0.018546
  100  H  3 XX    0.001863  -0.000014  -0.001425  -0.000978  -0.000309
  101  H  3 YY   -0.000712   0.000235   0.000039   0.001214   0.004667
  102  H  3 ZZ   -0.001150  -0.000221   0.001387  -0.000236  -0.004358
  103  H  3 XY   -0.001066  -0.000703   0.001857  -0.000195  -0.001153
  104  H  3 XZ   -0.000146  -0.000459   0.000324   0.001556   0.001303
  105  H  3 YZ   -0.001397   0.000463   0.000374   0.000107   0.000133
  106  O  4  S   -0.000296  -0.000971  -0.000020   0.000072  -0.000191
  107  O  4  S    0.005694   0.180057   0.047727   0.001910  -0.003783
  108  O  4  S    0.001083   0.053095   0.014510   0.000762  -0.001395
  109  O  4  S    0.036320   0.341862   0.081970  -0.019071   0.014377
  110  O  4  X    0.033626  -0.058390   0.055754  -0.192917   0.035396
  111  O  4  Y    0.089024   0.250611   0.001902   0.146239  -0.013056
  112  O  4  Z    0.019053  -0.177029  -0.122854   0.238306  -0.039551
  113  O  4  X    0.034543  -0.065518   0.066303  -0.227938   0.042250
  114  O  4  Y    0.099949   0.283433  -0.000754   0.172644  -0.016438
  115  O  4  Z    0.021697  -0.198356  -0.142825   0.279850  -0.046212
  116  O  4  X    0.010921  -0.039963   0.039443  -0.180022   0.025663
  117  O  4  Y    0.054576   0.169040  -0.007566   0.146349  -0.012374
  118  O  4  Z    0.014193  -0.107508  -0.104725   0.203775  -0.028351
  119  O  4 XX    0.001094   0.001721   0.000662  -0.000919   0.000419
  120  O  4 YY   -0.002417  -0.002273   0.000529  -0.002987   0.000138
  121  O  4 ZZ    0.001324   0.000552  -0.001192   0.003906  -0.000557
  122  O  4 XY   -0.001713  -0.000185  -0.000660   0.002654  -0.000521
  123  O  4 XZ    0.000876  -0.002641   0.000031  -0.001293   0.000123
  124  O  4 YZ    0.000633   0.004640   0.001421  -0.001352   0.000394
  125  O  4 XX    0.003377   0.007995   0.001650  -0.001870   0.001633
  126  O  4 YY   -0.004212  -0.005728   0.001782  -0.007839   0.000002
  127  O  4 ZZ    0.000835  -0.002266  -0.003432   0.009709  -0.001636
  128  O  4 XY   -0.003176   0.003653   0.000781   0.005751  -0.001100
  129  O  4 XZ    0.001951   0.000798   0.001445  -0.004779   0.000950
  130  O  4 YZ    0.001517   0.011469   0.003560  -0.003136   0.000999
  131  O  4 XXX  -0.000359  -0.000122   0.000742  -0.001872   0.000213
  132  O  4 YYY  -0.000154   0.000155  -0.000273   0.001018  -0.000140
  133  O  4 ZZZ  -0.000060   0.001006   0.000130   0.000319  -0.000077
  134  O  4 XXY   0.000508  -0.000211   0.000057  -0.000831   0.000127
  135  O  4 XXZ   0.000294  -0.000461   0.000126  -0.000837   0.000258
  136  O  4 YYX   0.000402   0.001530   0.000132   0.000463  -0.000025
  137  O  4 YYZ  -0.000213  -0.000890  -0.000300   0.000409  -0.000154
  138  O  4 ZZX   0.000080  -0.001367  -0.001127   0.002048  -0.000260
  139  O  4 ZZY  -0.000301   0.000004   0.000309  -0.000534   0.000060
  140  O  4 XYZ   0.000506   0.000645  -0.000584   0.002148  -0.000279
  141  O  4  S    0.011900   0.113483   0.005970  -0.000273   0.014376
  142  O  4  X   -0.000164  -0.010928   0.013749  -0.030696   0.001381
  143  O  4  Y    0.002893   0.018862  -0.000001   0.027005   0.000392
  144  O  4  Z    0.000783  -0.011037  -0.014209   0.029181  -0.005903
  145  O  4 XX    0.001030   0.005504   0.005324   0.001540   0.001341
  146  O  4 YY    0.000150  -0.000450  -0.001379  -0.004120  -0.002153
  147  O  4 ZZ   -0.001180  -0.005053  -0.003945   0.002580   0.000812
  148  O  4 XY   -0.000999   0.004413   0.004050  -0.006484   0.002195
  149  O  4 XZ    0.001780   0.010752   0.002841  -0.008092  -0.001304
  150  O  4 YZ    0.000212   0.001854  -0.000275   0.002617   0.002129
  151  O  4 XXX   0.000323   0.000776  -0.000137  -0.000777  -0.000067
  152  O  4 YYY   0.000305  -0.000461  -0.000207   0.000387  -0.000247
  153  O  4 ZZZ  -0.000173   0.000585   0.000687  -0.000657  -0.000057
  154  O  4 XXY   0.000050   0.000712  -0.000081   0.000774   0.000085
  155  O  4 XXZ   0.000510   0.000719  -0.000444   0.000319   0.000258
  156  O  4 YYX  -0.000498  -0.002867  -0.000011   0.000622   0.000139
  157  O  4 YYZ  -0.000278  -0.001504  -0.000478   0.000563  -0.000182
  158  O  4 ZZX   0.000066   0.001826   0.000195   0.000421  -0.000050
  159  O  4 ZZY  -0.000459  -0.000094   0.000358  -0.001294   0.000247
  160  O  4 XYZ  -0.000327   0.000634   0.000742  -0.000413  -0.000340
  161  H  5  S   -0.053355  -0.082396  -0.014765  -0.001172  -0.004435
  162  H  5  S   -0.083984  -0.167933  -0.038954   0.013245  -0.010969
  163  H  5  S   -0.019937  -0.074113  -0.012060   0.011730  -0.000170
  164  H  5  X   -0.003802  -0.007644   0.000407  -0.005944   0.000170
  165  H  5  Y   -0.003688  -0.001801  -0.001779   0.004565  -0.001092
  166  H  5  Z    0.000837  -0.004462  -0.003625   0.007186  -0.001028
  167  H  5  X   -0.010184  -0.025537   0.000444  -0.012854  -0.001389
  168  H  5  Y   -0.007914  -0.012298  -0.008513   0.013364  -0.003913
  169  H  5  Z    0.001877  -0.010860  -0.009128   0.019078  -0.002743
  170  H  5 XX   -0.000039  -0.001771   0.000509  -0.002443   0.000535
  171  H  5 YY   -0.001103  -0.000017  -0.001010   0.002661  -0.000638
  172  H  5 ZZ    0.001142   0.001788   0.000502  -0.000217   0.000103
  173  H  5 XY   -0.002474  -0.003416  -0.000303  -0.000933  -0.000453
  174  H  5 XZ    0.000265  -0.000880  -0.000752   0.001826  -0.000315
  175  H  5 YZ    0.000450  -0.001157  -0.001233   0.002470  -0.000302
  176  H  5  S    0.001119   0.000549  -0.000193   0.005753  -0.000785
  177  H  5  X   -0.002119  -0.008371   0.002023  -0.010254   0.000384
  178  H  5  Y    0.003546   0.007375  -0.004108   0.011931  -0.000797
  179  H  5  Z    0.001331  -0.007600  -0.006980   0.013645  -0.000254
  180  H  5 XX    0.000614  -0.001930   0.002504  -0.003237   0.002740
  181  H  5 YY   -0.000690   0.001441  -0.002081   0.002323  -0.001800
  182  H  5 ZZ    0.000076   0.000490  -0.000422   0.000914  -0.000940
  183  H  5 XY   -0.001088  -0.001558  -0.000602  -0.000690  -0.000535
  184  H  5 XZ    0.000314  -0.002443  -0.001532   0.003145  -0.001049
  185  H  5 YZ    0.000824  -0.000224  -0.000855   0.002575   0.000068
  186  H  6  S    0.021357  -0.082824  -0.016794  -0.001896   0.001385
  187  H  6  S    0.023933  -0.177143  -0.029777   0.014445  -0.004761
  188  H  6  S    0.004423  -0.074777  -0.007582   0.008429  -0.006754
  189  H  6  X   -0.001296   0.007023   0.003386  -0.006066   0.001077
  190  H  6  Y    0.002684   0.006093  -0.000284   0.004688  -0.000299
  191  H  6  Z   -0.001237   0.002399  -0.002538   0.007366  -0.001002
  192  H  6  X   -0.000042   0.024906   0.008495  -0.020534   0.006879
  193  H  6  Y    0.006544   0.014104  -0.001317   0.013342  -0.003117
  194  H  6  Z   -0.000178   0.011393  -0.006053   0.017596  -0.002700
  195  H  6 XX    0.000252  -0.002358  -0.001645   0.003574  -0.000769
  196  H  6 YY   -0.000215   0.002130   0.000177   0.000058   0.000110
  197  H  6 ZZ   -0.000037   0.000228   0.001468  -0.003632   0.000659
  198  H  6 XY   -0.000959  -0.001531   0.000395  -0.002017   0.000348
  199  H  6 XZ    0.000746  -0.003104  -0.000199  -0.000496  -0.000181
  200  H  6 YZ   -0.000836  -0.001133   0.000120  -0.000986   0.000105
  201  H  6  S   -0.000009  -0.000677   0.000123   0.002732   0.000091
  202  H  6  X    0.002130   0.003987  -0.000624  -0.014265   0.006850
  203  H  6  Y    0.003025   0.009879   0.000464   0.009365  -0.003642
  204  H  6  Z    0.000691  -0.005689  -0.006602   0.014949  -0.003730
  205  H  6 XX    0.000376  -0.001132  -0.001797   0.004106  -0.001599
  206  H  6 YY   -0.000337  -0.000632   0.000161   0.000588   0.000323
  207  H  6 ZZ   -0.000039   0.001765   0.001636  -0.004694   0.001276
  208  H  6 XY   -0.001270  -0.001994   0.000074  -0.001103   0.000516
  209  H  6 XZ   -0.000015  -0.000774   0.000169  -0.000773   0.000373
  210  H  6 YZ   -0.000677  -0.000180   0.000810  -0.002279   0.000729

                     11         12         13         14         15
                   -0.0316     0.0039     0.0187     0.0434     0.0703
                     A          A          A          A          A   
    1  O  1  S   -0.000982  -0.001216  -0.000734   0.001577  -0.001107
    2  O  1  S   -0.063000  -0.090245  -0.017410  -0.031132  -0.020452
    3  O  1  S   -0.020370  -0.028448  -0.005875  -0.009129  -0.007226
    4  O  1  S   -0.124429  -0.368451  -0.020810  -0.340241   0.192119
    5  O  1  X   -0.023880   0.010253   0.011563  -0.032922  -0.021801
    6  O  1  Y   -0.004842  -0.054174   0.024583  -0.006079   0.016096
    7  O  1  Z   -0.023803  -0.043359   0.002813   0.024601  -0.038194
    8  O  1  X   -0.027466   0.009944   0.011515  -0.063379  -0.017102
    9  O  1  Y   -0.006759  -0.073199   0.031371  -0.006504   0.028822
   10  O  1  Z   -0.030859  -0.059196   0.004172   0.033743  -0.045858
   11  O  1  X   -0.020146   0.060054  -0.029090  -0.348603   0.091207
   12  O  1  Y   -0.029375  -0.150873   0.087843   0.048079   0.007231
   13  O  1  Z   -0.043010  -0.142509   0.052335   0.093244   0.122017
   14  O  1 XX   -0.000123   0.000545  -0.000140   0.000263  -0.000449
   15  O  1 YY    0.000333  -0.000359   0.000402  -0.000320   0.000603
   16  O  1 ZZ   -0.000210  -0.000186  -0.000262   0.000057  -0.000154
   17  O  1 XY   -0.000366  -0.000602   0.000171   0.000214  -0.000859
   18  O  1 XZ   -0.000459  -0.000345  -0.000110  -0.000032  -0.000180
   19  O  1 YZ    0.000109   0.000027   0.000231   0.000142  -0.000058
   20  O  1 XX    0.000661   0.001533  -0.003418  -0.022212   0.007868
   21  O  1 YY   -0.000195  -0.000957   0.002335   0.010489  -0.002747
   22  O  1 ZZ   -0.000466  -0.000576   0.001084   0.011722  -0.005121
   23  O  1 XY   -0.000872   0.003523  -0.000661   0.000194   0.004941
   24  O  1 XZ   -0.000651   0.000555   0.000134  -0.002042   0.001223
   25  O  1 YZ   -0.001946  -0.008871   0.003263   0.003284  -0.002193
   26  O  1 XXX   0.000087  -0.000333   0.000074  -0.000774  -0.000284
   27  O  1 YYY   0.000032   0.000264   0.000011   0.000200  -0.000376
   28  O  1 ZZZ   0.000013   0.000191   0.000098  -0.000260   0.000795
   29  O  1 XXY   0.000042  -0.000130  -0.000082  -0.000227   0.001229
   30  O  1 XXZ  -0.000065  -0.000108  -0.000150  -0.000003  -0.001760
   31  O  1 YYX  -0.000061   0.000281   0.000017   0.000965  -0.000259
   32  O  1 YYZ   0.000048  -0.000149   0.000019   0.000352   0.000694
   33  O  1 ZZX  -0.000055   0.000166  -0.000117   0.000073   0.000639
   34  O  1 ZZY  -0.000085  -0.000224   0.000066  -0.000042  -0.000724
   35  O  1 XYZ  -0.000034   0.000118  -0.000115  -0.000303   0.000348
   36  O  1  S   -0.151774  -0.730198   0.129824  -1.076004   0.435485
   37  O  1  X   -0.001096   0.263493  -0.025507  -0.615324  -0.103171
   38  O  1  Y   -0.000738  -0.222454   0.136850   0.250202  -0.084514
   39  O  1  Z   -0.030168  -0.089612   0.025528   0.272910   0.351714
   40  O  1 XX    0.001363   0.025003  -0.021643  -0.081767   0.057373
   41  O  1 YY    0.000675  -0.021531   0.018655   0.012643  -0.039578
   42  O  1 ZZ   -0.002038  -0.003472   0.002988   0.069124  -0.017795
   43  O  1 XY    0.001556   0.025153   0.001959   0.027765  -0.036683
   44  O  1 XZ    0.002213   0.019155  -0.001050  -0.005772   0.077454
   45  O  1 YZ   -0.006307  -0.026056   0.023014   0.020144  -0.010247
   46  O  1 XXX  -0.001324  -0.000923  -0.000262  -0.008530   0.004956
   47  O  1 YYY   0.000291   0.000256  -0.001044  -0.005174   0.001702
   48  O  1 ZZZ   0.000383   0.002070  -0.001829   0.001836  -0.006193
   49  O  1 XXY   0.000386   0.002522   0.000525   0.004811  -0.003717
   50  O  1 XXZ   0.000560   0.001299  -0.000268  -0.002125   0.014607
   51  O  1 YYX   0.000935   0.000730  -0.000694   0.003370  -0.001037
   52  O  1 YYZ  -0.001073  -0.004076   0.002722  -0.000338  -0.006299
   53  O  1 ZZX   0.000842   0.000508   0.001046   0.008074  -0.005612
   54  O  1 ZZY  -0.000776  -0.002865   0.000875   0.002131   0.001434
   55  O  1 XYZ   0.000262   0.003405  -0.000151   0.000952  -0.002829
   56  H  2  S    0.006273   0.012965  -0.000391  -0.001224   0.000133
   57  H  2  S    0.020752   0.022322   0.024376   0.228460  -0.082779
   58  H  2  S   -0.031922   0.003021   0.091320   1.706050  -1.188396
   59  H  2  X    0.004194   0.002318  -0.000672   0.000863   0.002251
   60  H  2  Y   -0.000673  -0.000914   0.000674   0.001643  -0.000091
   61  H  2  Z   -0.000304  -0.000939   0.000141   0.000793   0.001400
   62  H  2  X    0.011007  -0.009507  -0.005287  -0.090680   0.072294
   63  H  2  Y    0.000448  -0.003584  -0.007111  -0.006927  -0.004645
   64  H  2  Z   -0.001905  -0.000464  -0.006650  -0.010664  -0.040826
   65  H  2 XX   -0.001438  -0.000251  -0.000046   0.004610  -0.003400
   66  H  2 YY    0.000638  -0.000106   0.000207  -0.002650   0.001318
   67  H  2 ZZ    0.000800   0.000358  -0.000161  -0.001960   0.002082
   68  H  2 XY    0.000131   0.001477  -0.000197   0.001191  -0.000153
   69  H  2 XZ    0.000256   0.000744  -0.000025  -0.000064   0.000725
   70  H  2 YZ    0.000045  -0.000088   0.000007  -0.000117   0.000088
   71  H  2  S   -0.346933   0.033784  -0.633908   5.941610   0.687419
   72  H  2  X    0.033516  -0.017428  -0.028461  -0.163899  -0.446750
   73  H  2  Y   -0.013592  -0.015860  -0.058730  -0.169559   0.332295
   74  H  2  Z   -0.023238  -0.000014  -0.043084  -0.060800  -0.393666
   75  H  2 XX   -0.005349   0.004595   0.006786   0.046244  -0.032235
   76  H  2 YY    0.003019  -0.002041  -0.001684  -0.003039   0.001081
   77  H  2 ZZ    0.002330  -0.002554  -0.005102  -0.043204   0.031154
   78  H  2 XY    0.005551   0.010498  -0.000731  -0.035154   0.055215
   79  H  2 XZ    0.000857   0.000914   0.011049   0.016253   0.066642
   80  H  2 YZ    0.001507   0.002977  -0.007567  -0.006206  -0.004056
   81  H  3  S    0.009727   0.011357   0.006055   0.006038   0.002485
   82  H  3  S    0.048614   0.170253  -0.055592  -0.057123  -0.000158
   83  H  3  S    0.204335   0.757042  -0.150518  -0.410914  -0.263666
   84  H  3  X   -0.001506  -0.002232   0.000032   0.000015  -0.000129
   85  H  3  Y    0.002346   0.005715   0.000332  -0.000892   0.000049
   86  H  3  Z    0.001718   0.005718  -0.000408   0.000334  -0.000214
   87  H  3  X    0.000664   0.003920  -0.005941  -0.010137   0.008422
   88  H  3  Y   -0.000054  -0.018474   0.008187   0.024503   0.020637
   89  H  3  Z   -0.001673  -0.020556   0.011702   0.005673   0.004575
   90  H  3 XX   -0.000174  -0.000459  -0.000044  -0.000411  -0.000293
   91  H  3 YY   -0.000163   0.000447  -0.000233   0.000549  -0.000745
   92  H  3 ZZ    0.000337   0.000012   0.000277  -0.000138   0.001037
   93  H  3 XY    0.000427  -0.000191   0.000406   0.001715  -0.000201
   94  H  3 XZ    0.000193  -0.000193   0.000059   0.000991  -0.000397
   95  H  3 YZ   -0.000133   0.000535  -0.000837  -0.001255  -0.000217
   96  H  3  S    0.372420   1.400311   0.043661  -3.561132  -0.569020
   97  H  3  X    0.033764  -0.008849   0.005066  -0.003877   0.098377
   98  H  3  Y   -0.014568  -0.050012  -0.015212   0.147204   0.112643
   99  H  3  Z   -0.003343  -0.093797   0.033231   0.024002   0.099368
  100  H  3 XX    0.002524  -0.008123   0.002971   0.006634   0.024647
  101  H  3 YY   -0.001580   0.000414   0.003867  -0.014985  -0.022764
  102  H  3 ZZ   -0.000944   0.007708  -0.006838   0.008351  -0.001883
  103  H  3 XY   -0.003083   0.000049  -0.004842   0.008198  -0.002817
  104  H  3 XZ   -0.001430  -0.002756   0.000627   0.005731  -0.005146
  105  H  3 YZ    0.002192   0.014380   0.002441  -0.008061  -0.017864
  106  O  4  S   -0.002554   0.000152  -0.000233  -0.001748  -0.005314
  107  O  4  S   -0.136863   0.023871  -0.010611  -0.063374  -0.080617
  108  O  4  S   -0.044446   0.007938  -0.003539  -0.022219  -0.028881
  109  O  4  S   -0.333894   0.093083  -0.038085   0.116651   0.824335
  110  O  4  X   -0.014502   0.037173   0.056824   0.018987   0.021749
  111  O  4  Y    0.053422  -0.040669   0.060585  -0.015193   0.038734
  112  O  4  Z   -0.050993   0.013425   0.026964   0.015067  -0.099244
  113  O  4  X   -0.017980   0.045904   0.078680   0.019550   0.048958
  114  O  4  Y    0.067471  -0.051584   0.081179  -0.019967   0.009037
  115  O  4  Z   -0.064148   0.017285   0.037593   0.028843  -0.098139
  116  O  4  X   -0.063255   0.081938   0.278655   0.211294  -0.022210
  117  O  4  Y    0.105551  -0.043321   0.191084  -0.202975  -0.019210
  118  O  4  Z   -0.092059   0.030625   0.112245   0.069177   0.235581
  119  O  4 XX    0.000728  -0.000292  -0.000023  -0.000535   0.001276
  120  O  4 YY   -0.000278   0.000433  -0.000099   0.000405   0.000096
  121  O  4 ZZ   -0.000450  -0.000141   0.000123   0.000130  -0.001372
  122  O  4 XY    0.000777  -0.000739   0.000269   0.000872   0.000107
  123  O  4 XZ    0.000476   0.000102  -0.000062   0.000357   0.000485
  124  O  4 YZ    0.000803  -0.000311   0.000121  -0.000148   0.001459
  125  O  4 XX    0.000846   0.000845   0.002675   0.002862   0.003709
  126  O  4 YY   -0.000014  -0.000228  -0.007409   0.000506  -0.001848
  127  O  4 ZZ   -0.000832  -0.000616   0.004733  -0.003368  -0.001861
  128  O  4 XY    0.000435  -0.002486  -0.006249  -0.001029   0.014716
  129  O  4 XZ   -0.001335   0.000928   0.006708   0.005337   0.019332
  130  O  4 YZ    0.003065  -0.001547   0.000918  -0.002007  -0.004714
  131  O  4 XXX   0.000105   0.000190  -0.000033  -0.000104   0.001330
  132  O  4 YYY   0.000043  -0.000204  -0.000021   0.000046  -0.000646
  133  O  4 ZZZ   0.000079  -0.000019  -0.000314  -0.000048  -0.000903
  134  O  4 XXY  -0.000108   0.000129   0.000323   0.000079  -0.000498
  135  O  4 XXZ   0.000116  -0.000006   0.000402   0.000404   0.002012
  136  O  4 YYX   0.000006  -0.000394   0.000128  -0.000589  -0.002800
  137  O  4 YYZ  -0.000221   0.000031   0.000019  -0.000340  -0.000800
  138  O  4 ZZX  -0.000146   0.000139  -0.000084   0.000729   0.001016
  139  O  4 ZZY   0.000050   0.000145  -0.000294  -0.000140   0.001365
  140  O  4 XYZ  -0.000093  -0.000073   0.000130   0.000059  -0.001519
  141  O  4  S   -0.366392   0.147970  -0.031123   0.009827   5.900197
  142  O  4  X   -0.095052   0.208450   0.478380   0.589637  -0.598070
  143  O  4  Y    0.065143  -0.039662   0.345392  -0.462991  -0.234970
  144  O  4  Z    0.006968   0.015274   0.224876  -0.021777   1.493775
  145  O  4 XX   -0.003734   0.021311   0.014140  -0.050467   0.038075
  146  O  4 YY    0.001931  -0.015918  -0.043026   0.034807  -0.052060
  147  O  4 ZZ    0.001802  -0.005393   0.028886   0.015660   0.013985
  148  O  4 XY    0.008259  -0.025267  -0.024785   0.008836  -0.051050
  149  O  4 XZ   -0.015143   0.011052   0.048768   0.037782  -0.000270
  150  O  4 YZ    0.007158  -0.007111   0.007870  -0.048399  -0.024531
  151  O  4 XXX  -0.000498  -0.000425  -0.002262   0.002328  -0.006401
  152  O  4 YYY  -0.000503   0.001163   0.000243  -0.001174   0.003774
  153  O  4 ZZZ   0.001397  -0.001674  -0.000134  -0.002531   0.002743
  154  O  4 XXY   0.000996  -0.000408   0.001703   0.000077   0.000994
  155  O  4 XXZ  -0.002738   0.002498   0.003737   0.002068  -0.004944
  156  O  4 YYX   0.002335   0.001144   0.001836  -0.001381   0.007150
  157  O  4 YYZ   0.000864  -0.000252  -0.003557   0.001328   0.001264
  158  O  4 ZZX  -0.001667  -0.000574   0.001199  -0.001742   0.001438
  159  O  4 ZZY  -0.000322  -0.001153  -0.002029   0.001498  -0.006058
  160  O  4 XYZ   0.001619  -0.001445   0.000172  -0.002705   0.008984
  161  H  5  S    0.023346  -0.006376   0.007388   0.019416   0.021210
  162  H  5  S    0.079671   0.006177   0.157051  -0.009016   0.012698
  163  H  5  S    0.234107  -0.041528   0.809859  -0.159439  -1.763264
  164  H  5  X   -0.005203   0.001849  -0.002866   0.000206  -0.002275
  165  H  5  Y   -0.005874   0.001361  -0.006122  -0.002487  -0.002296
  166  H  5  Z   -0.000830   0.000243   0.001011   0.000433  -0.000190
  167  H  5  X   -0.005850   0.003590   0.012418  -0.046282  -0.071102
  168  H  5  Y   -0.012633   0.003214   0.024903  -0.008464  -0.130573
  169  H  5  Z   -0.000784  -0.001792   0.001918  -0.008197  -0.022695
  170  H  5 XX   -0.000416   0.000776   0.000251   0.000015   0.000727
  171  H  5 YY   -0.000401  -0.000474   0.000761   0.000042  -0.005798
  172  H  5 ZZ    0.000817  -0.000302  -0.001012  -0.000057   0.005071
  173  H  5 XY   -0.001768   0.000346   0.001248  -0.001330  -0.006528
  174  H  5 XZ   -0.000185  -0.000016   0.000562  -0.000168  -0.001377
  175  H  5 YZ   -0.000589   0.000237   0.000296   0.000764  -0.000949
  176  H  5  S    0.381407  -0.296633   3.016146  -1.405151  -0.927415
  177  H  5  X    0.023380  -0.009380   0.063191  -0.222253  -0.181834
  178  H  5  Y   -0.043796  -0.009157   0.083411  -0.097907  -0.466341
  179  H  5  Z   -0.002237  -0.013768  -0.017619  -0.044063  -0.119378
  180  H  5 XX    0.001766   0.003873  -0.008008  -0.023908   0.018586
  181  H  5 YY    0.000474  -0.009863   0.014807   0.008359  -0.048512
  182  H  5 ZZ   -0.002240   0.005991  -0.006799   0.015549   0.029926
  183  H  5 XY    0.006751  -0.003198   0.013359  -0.015884  -0.051472
  184  H  5 XZ    0.001318  -0.003311  -0.005412  -0.002807  -0.011414
  185  H  5 YZ   -0.003109  -0.000562   0.002522  -0.004164  -0.031312
  186  H  6  S    0.020761  -0.004387  -0.002642   0.011277   0.019543
  187  H  6  S    0.112770  -0.056964  -0.147550  -0.112648  -0.107146
  188  H  6  S    0.358203  -0.230022  -0.739846  -0.134830  -2.557431
  189  H  6  X    0.007062  -0.002709  -0.002216   0.000253   0.004100
  190  H  6  Y    0.000523  -0.000373   0.002171  -0.000383   0.000383
  191  H  6  Z    0.005538  -0.003142  -0.002799   0.001004   0.002300
  192  H  6  X    0.008969  -0.005242   0.021020   0.036018   0.147056
  193  H  6  Y   -0.004344   0.004459  -0.014055   0.022555  -0.019118
  194  H  6  Z    0.002462   0.004658   0.021477   0.031048   0.106955
  195  H  6 XX   -0.001054  -0.000099  -0.001188  -0.000575  -0.005758
  196  H  6 YY    0.001059  -0.000249   0.001284   0.000850   0.005383
  197  H  6 ZZ   -0.000006   0.000348  -0.000096  -0.000275   0.000376
  198  H  6 XY   -0.000113   0.000275  -0.000271   0.000115   0.001185
  199  H  6 XZ   -0.001417   0.000243  -0.001719  -0.002356  -0.009744
  200  H  6 YZ   -0.000267   0.000291  -0.000498   0.000184   0.002312
  201  H  6  S    0.653293  -0.546619  -2.485739  -1.087812  -0.951219
  202  H  6  X    0.028440  -0.066392   0.053718  -0.087387   0.756809
  203  H  6  Y   -0.022880   0.039450  -0.094457   0.159168  -0.181177
  204  H  6  Z   -0.003092   0.033379   0.077713   0.089706   0.347538
  205  H  6 XX   -0.002459   0.009471   0.001589   0.009130  -0.056840
  206  H  6 YY   -0.001881   0.000743   0.003883   0.008422   0.037757
  207  H  6 ZZ    0.004340  -0.010214  -0.005472  -0.017552   0.019083
  208  H  6 XY    0.003583  -0.005346   0.011952  -0.021982   0.034219
  209  H  6 XZ    0.005331  -0.002595  -0.006212  -0.011441  -0.043005
  210  H  6 YZ    0.001300  -0.002764   0.007329  -0.010351  -0.003447

                     16         17         18         19         20
                    0.0846     0.0944     0.1081     0.1150     0.1208
                     A          A          A          A          A   
    1  O  1  S   -0.002415  -0.005749  -0.001623  -0.002142  -0.002255
    2  O  1  S   -0.031808  -0.075431  -0.079194  -0.104989  -0.009002
    3  O  1  S   -0.013082  -0.029278  -0.028798  -0.037847  -0.004235
    4  O  1  S    0.258056   1.499603   0.190738  -0.085650   0.047556
    5  O  1  X   -0.000080  -0.028660   0.010091   0.051279   0.003654
    6  O  1  Y   -0.021320  -0.084813  -0.039293   0.013908   0.055009
    7  O  1  Z    0.025676  -0.084075  -0.016968  -0.014033  -0.055517
    8  O  1  X    0.009969  -0.012267  -0.006924   0.037378  -0.004307
    9  O  1  Y   -0.022787  -0.053559  -0.021010   0.039090   0.066364
   10  O  1  Z    0.046433  -0.048454   0.001288   0.001210  -0.053453
   11  O  1  X    0.230633   0.007073  -0.365964  -0.281148  -0.016321
   12  O  1  Y   -0.064710   0.443660   0.239028  -0.023638   0.089864
   13  O  1  Z   -0.053203   0.299184   0.176909   0.064540   0.114698
   14  O  1 XX    0.000436  -0.000133   0.001643   0.000436   0.000453
   15  O  1 YY   -0.000101   0.000174  -0.001304  -0.000050  -0.000654
   16  O  1 ZZ   -0.000335  -0.000041  -0.000340  -0.000386   0.000200
   17  O  1 XY   -0.000186  -0.001193   0.000223   0.000068  -0.000288
   18  O  1 XZ   -0.000910  -0.000907  -0.000322  -0.000310  -0.000206
   19  O  1 YZ   -0.000013  -0.000194  -0.000647  -0.000241  -0.000161
   20  O  1 XX    0.008553  -0.001369  -0.013471  -0.008528  -0.000223
   21  O  1 YY   -0.004535   0.002845   0.006560   0.008177   0.011062
   22  O  1 ZZ   -0.004018  -0.001475   0.006912   0.000352  -0.010839
   23  O  1 XY   -0.015156  -0.015502  -0.013427  -0.014998   0.007691
   24  O  1 XZ   -0.000529  -0.016955  -0.007546  -0.009010  -0.009503
   25  O  1 YZ    0.014217   0.028227   0.023582   0.029555   0.008538
   26  O  1 XXX   0.001694   0.001698   0.000267   0.001394  -0.000285
   27  O  1 YYY  -0.000034   0.000393  -0.000192  -0.001123  -0.000207
   28  O  1 ZZZ  -0.001210  -0.000328   0.000682  -0.000444   0.000347
   29  O  1 XXY  -0.000973  -0.001695  -0.001315   0.000926   0.002090
   30  O  1 XXZ   0.001433  -0.000686  -0.000869  -0.000717  -0.001715
   31  O  1 YYX  -0.000681  -0.000896   0.000108  -0.001458  -0.000483
   32  O  1 YYZ   0.000191   0.001126  -0.000046   0.001313   0.001249
   33  O  1 ZZX  -0.001592  -0.001382  -0.000467  -0.000413   0.000865
   34  O  1 ZZY   0.001018   0.001168   0.001572   0.000581  -0.001812
   35  O  1 XYZ  -0.001629  -0.001334   0.000041   0.000556   0.000242
   36  O  1  S    1.312010   6.305620   0.720442  -0.710648   0.798585
   37  O  1  X    0.660910   0.805935  -1.260570  -2.040163   0.134974
   38  O  1  Y   -0.150631   1.049783   0.703823  -0.273308  -1.069558
   39  O  1  Z   -0.566857   1.070001   0.025233  -0.230619   0.847033
   40  O  1 XX    0.020962  -0.038600  -0.077417  -0.041089   0.020203
   41  O  1 YY   -0.006366   0.021483   0.078183   0.040695  -0.054291
   42  O  1 ZZ   -0.014596   0.017116  -0.000767   0.000394   0.034088
   43  O  1 XY    0.030269   0.028630  -0.058738  -0.213663  -0.129014
   44  O  1 XZ   -0.048182  -0.026954  -0.065889  -0.116443   0.032369
   45  O  1 YZ   -0.000527   0.114904   0.059238  -0.000977   0.043870
   46  O  1 XXX   0.000614   0.003597  -0.000033  -0.000058   0.009268
   47  O  1 YYY   0.000149  -0.005420  -0.000360   0.007651   0.002142
   48  O  1 ZZZ   0.007177  -0.002345  -0.007035  -0.000511  -0.004966
   49  O  1 XXY  -0.001717   0.006496   0.001067  -0.018098  -0.011887
   50  O  1 XXZ  -0.015107  -0.000762  -0.000503  -0.005151   0.005988
   51  O  1 YYX  -0.002295  -0.003961  -0.002746   0.003378  -0.004407
   52  O  1 YYZ   0.005479   0.003909   0.009942   0.005837   0.000675
   53  O  1 ZZX   0.001471  -0.000865   0.002790  -0.003301  -0.008027
   54  O  1 ZZY   0.001517   0.000775  -0.000585   0.007833   0.009013
   55  O  1 XYZ   0.007663  -0.003603  -0.009229  -0.012122  -0.005283
   56  H  2  S    0.015360   0.009779   0.019644   0.016549   0.003928
   57  H  2  S   -0.165753  -0.073324   0.217639   0.132710  -0.055973
   58  H  2  S    0.316721  -2.045327   1.094030   2.160432   0.445444
   59  H  2  X    0.001480   0.003395  -0.000107   0.000703   0.002916
   60  H  2  Y   -0.001532  -0.000596  -0.000172  -0.003874  -0.000215
   61  H  2  Z   -0.002318  -0.000428  -0.000598  -0.002713  -0.000239
   62  H  2  X    0.065908   0.135947  -0.027606  -0.054563  -0.008522
   63  H  2  Y   -0.006629  -0.046384  -0.001071   0.084055   0.042157
   64  H  2  Z    0.045605  -0.005907  -0.003935   0.026035  -0.021916
   65  H  2 XX   -0.004312  -0.004992   0.001557   0.000345   0.000305
   66  H  2 YY    0.002299   0.001636  -0.000093   0.000231   0.002034
   67  H  2 ZZ    0.002013   0.003357  -0.001464  -0.000576  -0.002339
   68  H  2 XY    0.002157   0.001626  -0.001246  -0.001572  -0.000289
   69  H  2 XZ   -0.002392  -0.000333  -0.000396  -0.000680  -0.000460
   70  H  2 YZ   -0.000468   0.000539   0.001441   0.001262   0.000354
   71  H  2  S   -1.057061  -0.926548   0.749021   0.890581  -1.094417
   72  H  2  X    0.846549   0.669393  -0.386832  -0.716815  -0.574854
   73  H  2  Y   -0.280299  -0.329110   0.189198   0.778000   0.716431
   74  H  2  Z    0.455971   0.105674  -0.060688   0.209744  -0.045717
   75  H  2 XX    0.041028  -0.150641   0.025442   0.055184   0.006335
   76  H  2 YY    0.006905   0.069262  -0.013286  -0.025712  -0.022374
   77  H  2 ZZ   -0.047934   0.081379  -0.012156  -0.029472   0.016039
   78  H  2 XY   -0.124312   0.120419  -0.030199  -0.141950  -0.030637
   79  H  2 XZ   -0.056867  -0.000531   0.010821  -0.038837   0.047000
   80  H  2 YZ    0.006265  -0.002573  -0.007576   0.007820  -0.013634
   81  H  3  S    0.015329   0.028875   0.019942   0.034087   0.000472
   82  H  3  S   -0.005300  -0.393172  -0.320791  -0.183991  -0.143650
   83  H  3  S    0.125328  -3.249569  -1.572812  -1.235727  -1.025727
   84  H  3  X   -0.001016  -0.003382  -0.004653  -0.005777  -0.001506
[...]
   38. RY (24) O  1                      0.00000        0.00000       0.00000
   39. RY (25) O  1                      0.00000        0.00000       0.00000
   40. RY (26) O  1                      0.00000        0.00000       0.00000
   41. RY (27) O  1                      0.00000        0.00000       0.00000
   42. RY (28) O  1                      0.00000        0.00000       0.00000
   43. RY (29) O  1                      0.00000        0.00000       0.00000
   44. RY (30) O  1                      0.00000        0.00000       0.00000
   45. RY (31) O  1                      0.00000        0.00000       0.00000
   46. RY (32) O  1                      0.00000        0.00000       0.00000
   47. RY (33) O  1                      0.00000        0.00000       0.00000
   48. RY (34) O  1                      0.00000        0.00000       0.00000
   49. RY (35) O  1                      0.00000        0.00000       0.00000
   50. RY (36) O  1                      0.00000        0.00000       0.00000
   51. RY (37) O  1                      0.00000        0.00000       0.00000
   52. RY (38) O  1                      0.00000        0.00000       0.00000
   53. RY (39) O  1                      0.00000        0.00000       0.00000
   54. RY (40) O  1                      0.00000        0.00000       0.00000
   55. RY (41) O  1                      0.00000        0.00000       0.00000
   56. RY ( 1) H  2                      0.00174        0.00126      -0.00047
   57. RY ( 2) H  2                      0.00141        0.00082      -0.00060
   58. RY ( 3) H  2                      0.00102        0.00085      -0.00016
   59. RY ( 4) H  2                      0.00043        0.00010      -0.00033
   60. RY ( 5) H  2                      0.00015        0.00006      -0.00010
   61. RY ( 6) H  2                      0.00014        0.00001      -0.00013
   62. RY ( 7) H  2                      0.00005        0.00001      -0.00004
   63. RY ( 8) H  2                      0.00000        0.00000       0.00000
   64. RY ( 9) H  2                      0.00000        0.00000       0.00000
   65. RY (10) H  2                      0.00000        0.00000       0.00000
   66. RY (11) H  2                      0.00000        0.00000       0.00000
   67. RY (12) H  2                      0.00000        0.00000       0.00000
   68. RY (13) H  2                      0.00000        0.00000       0.00000
   69. RY (14) H  2                      0.00000        0.00000       0.00000
   70. RY (15) H  2                      0.00000        0.00001       0.00001
   71. RY (16) H  2                      0.00000        0.00000       0.00000
   72. RY (17) H  2                      0.00000        0.00000       0.00000
   73. RY (18) H  2                      0.00000        0.00000       0.00000
   74. RY (19) H  2                      0.00000        0.00000       0.00000
   75. RY (20) H  2                      0.00000        0.00000       0.00000
   76. RY (21) H  2                      0.00000        0.00000       0.00000
   77. RY (22) H  2                      0.00000        0.00000       0.00000
   78. RY ( 1) H  3                      0.00151        0.00153       0.00001
   79. RY ( 2) H  3                      0.00085        0.00083      -0.00001
   80. RY ( 3) H  3                      0.00048        0.00048       0.00001
   81. RY ( 4) H  3                      0.00002        0.00000      -0.00002
   82. RY ( 5) H  3                      0.00001        0.00000      -0.00001
   83. RY ( 6) H  3                      0.00001        0.00000       0.00000
   84. RY ( 7) H  3                      0.00000        0.00000       0.00000
   85. RY ( 8) H  3                      0.00000        0.00000       0.00000
   86. RY ( 9) H  3                      0.00000        0.00000       0.00000
   87. RY (10) H  3                      0.00000        0.00000       0.00000
   88. RY (11) H  3                      0.00000        0.00000       0.00000
   89. RY (12) H  3                      0.00000        0.00000       0.00000
   90. RY (13) H  3                      0.00000        0.00000       0.00000
   91. RY (14) H  3                      0.00000        0.00000       0.00000
   92. RY (15) H  3                      0.00000        0.00000       0.00000
   93. RY (16) H  3                      0.00000        0.00000       0.00000
   94. RY (17) H  3                      0.00000        0.00000       0.00000
   95. RY (18) H  3                      0.00000        0.00000       0.00000
   96. RY (19) H  3                      0.00000        0.00000       0.00000
   97. RY (20) H  3                      0.00000        0.00000       0.00000
   98. RY (21) H  3                      0.00000        0.00000       0.00000
   99. RY (22) H  3                      0.00000        0.00000       0.00000
  100. RY ( 1) O  4                      0.00025        0.00003      -0.00022
  101. RY ( 2) O  4                      0.00014        0.00003      -0.00011
  102. RY ( 3) O  4                      0.00010        0.00000      -0.00009
  103. RY ( 4) O  4                      0.00005        0.00002      -0.00004
  104. RY ( 5) O  4                      0.00000        0.00001       0.00001
  105. RY ( 6) O  4                      0.00000        0.00000       0.00000
  106. RY ( 7) O  4                      0.00000        0.00000       0.00000
  107. RY ( 8) O  4                      0.00000        0.00000       0.00000
  108. RY ( 9) O  4                      0.00000        0.00000       0.00000
  109. RY (10) O  4                      0.00000        0.00000       0.00000
  110. RY (11) O  4                      0.00000        0.00000       0.00000
  111. RY (12) O  4                      0.00000        0.00001       0.00001
  112. RY (13) O  4                      0.00000        0.00000       0.00000
  113. RY (14) O  4                      0.00000        0.00000       0.00000
  114. RY (15) O  4                      0.00000        0.00000       0.00000
  115. RY (16) O  4                      0.00000        0.00000       0.00000
  116. RY (17) O  4                      0.00000        0.00000       0.00000
  117. RY (18) O  4                      0.00000        0.00000       0.00000
  118. RY (19) O  4                      0.00000        0.00000       0.00000
  119. RY (20) O  4                      0.00000        0.00000       0.00000
  120. RY (21) O  4                      0.00000        0.00000       0.00000
  121. RY (22) O  4                      0.00000        0.00000       0.00000
  122. RY (23) O  4                      0.00000        0.00000       0.00000
  123. RY (24) O  4                      0.00000        0.00000       0.00000
  124. RY (25) O  4                      0.00000        0.00000       0.00000
  125. RY (26) O  4                      0.00000        0.00000       0.00000
  126. RY (27) O  4                      0.00000        0.00000       0.00000
  127. RY (28) O  4                      0.00000        0.00000       0.00000
  128. RY (29) O  4                      0.00000        0.00000       0.00000
  129. RY (30) O  4                      0.00000        0.00000       0.00000
  130. RY (31) O  4                      0.00000        0.00000       0.00000
  131. RY (32) O  4                      0.00000        0.00000       0.00000
  132. RY (33) O  4                      0.00000        0.00000       0.00000
  133. RY (34) O  4                      0.00000        0.00000       0.00000
  134. RY (35) O  4                      0.00000        0.00000       0.00000
  135. RY (36) O  4                      0.00000        0.00000       0.00000
  136. RY (37) O  4                      0.00000        0.00000       0.00000
  137. RY (38) O  4                      0.00000        0.00000       0.00000
  138. RY (39) O  4                      0.00000        0.00001       0.00001
  139. RY (40) O  4                      0.00000        0.00000       0.00000
  140. RY (41) O  4                      0.00000        0.00000       0.00000
  141. RY ( 1) H  5                      0.00117        0.00111      -0.00006
  142. RY ( 2) H  5                      0.00093        0.00088      -0.00006
  143. RY ( 3) H  5                      0.00049        0.00039      -0.00010
  144. RY ( 4) H  5                      0.00012        0.00004      -0.00008
  145. RY ( 5) H  5                      0.00007        0.00001      -0.00007
  146. RY ( 6) H  5                      0.00002        0.00001      -0.00001
  147. RY ( 7) H  5                      0.00001        0.00001       0.00000
  148. RY ( 8) H  5                      0.00000        0.00000       0.00000
  149. RY ( 9) H  5                      0.00000        0.00000       0.00000
  150. RY (10) H  5                      0.00000        0.00000       0.00000
  151. RY (11) H  5                      0.00000        0.00000       0.00000
  152. RY (12) H  5                      0.00000        0.00000       0.00000
  153. RY (13) H  5                      0.00000        0.00000       0.00000
  154. RY (14) H  5                      0.00000        0.00000       0.00000
  155. RY (15) H  5                      0.00000        0.00000       0.00000
  156. RY (16) H  5                      0.00000        0.00000       0.00000
  157. RY (17) H  5                      0.00000        0.00000       0.00000
  158. RY (18) H  5                      0.00000        0.00000       0.00000
  159. RY (19) H  5                      0.00000        0.00000       0.00000
  160. RY (20) H  5                      0.00000        0.00000       0.00000
  161. RY (21) H  5                      0.00000        0.00000       0.00000
  162. RY (22) H  5                      0.00000        0.00000       0.00000
  163. RY ( 1) H  6                      0.00123        0.00115      -0.00008
  164. RY ( 2) H  6                      0.00073        0.00071      -0.00002
  165. RY ( 3) H  6                      0.00051        0.00053       0.00002
  166. RY ( 4) H  6                      0.00004        0.00001      -0.00003
  167. RY ( 5) H  6                      0.00001        0.00002       0.00001
  168. RY ( 6) H  6                      0.00001        0.00000       0.00000
  169. RY ( 7) H  6                      0.00000        0.00000       0.00000
  170. RY ( 8) H  6                      0.00000        0.00000       0.00000
  171. RY ( 9) H  6                      0.00000        0.00000       0.00000
  172. RY (10) H  6                      0.00000        0.00000       0.00000
  173. RY (11) H  6                      0.00000        0.00000       0.00000
  174. RY (12) H  6                      0.00000        0.00000       0.00000
  175. RY (13) H  6                      0.00000        0.00000       0.00000
  176. RY (14) H  6                      0.00000        0.00000       0.00000
  177. RY (15) H  6                      0.00000        0.00000       0.00000
  178. RY (16) H  6                      0.00000        0.00000       0.00000
  179. RY (17) H  6                      0.00000        0.00000       0.00000
  180. RY (18) H  6                      0.00000        0.00000       0.00000
  181. RY (19) H  6                      0.00000        0.00000       0.00000
  182. RY (20) H  6                      0.00000        0.00000       0.00000
  183. RY (21) H  6                      0.00000        0.00000       0.00000
  184. RY (22) H  6                      0.00000        0.00000       0.00000

 NEXT STEP:  Perform one SCF cycle to evaluate the energy of the new density
             matrix constructed from the deleted NBO Fock matrix.

 ------------------------------------------------------------------------------

          --------------------------
             R-B3LYP SCF CALCULATION
          --------------------------
         DENSITY MATRIX CONVERGENCE THRESHOLD=  1.00E-05
     COARSE -> FINE DFT GRID SWITCH THRESHOLD=  3.00E-04 (SWITCH IN $DFT)
                   HF -> DFT SWITCH THRESHOLD=  0.00E+00 (SWOFF IN $DFT)

 ITER EX DEM     TOTAL ENERGY        E CHANGE  DENSITY CHANGE    DIIS ERROR
   1  0  0     -152.8489924252  -152.8489924252   0.053643506   0.000000000

 SCF IS UNCONVERGED, TOO MANY ITERATIONS
     TIME TO FORM FOCK OPERATORS=       6.9 SECONDS (       6.9 SEC/ITER)
     TIME TO SOLVE SCF EQUATIONS=       0.1 SECONDS (       0.1 SEC/ITER)

 FINAL R-B3LYP ENERGY IS        0.0000000000 AFTER   1 ITERATIONS
 DFT EXCHANGE + CORRELATION ENERGY =       -15.0268869892
 TOTAL ELECTRON NUMBER             =        19.9999842575
 ...... END OF RHF CALCULATION ......
 STEP CPU TIME =     7.95 TOTAL CPU TIME =         80.9 (      1.3 MIN)
 TOTAL WALL CLOCK TIME=         82.1 SECONDS, CPU UTILIZATION IS    98.55%

 ------------------------------------------------------------------------------
   Energy of deletion :       -152.848992425
     Total SCF energy :       -152.863892907
                          -------------------
        Energy change :          0.014900 a.u.,           9.350 kcal/mol
 ------------------------------------------------------------------------------

 --------------
  Fragment  1:
 --------------

 ...... END OF ONE-ELECTRON INTEGRALS ......
 STEP CPU TIME =     0.04 TOTAL CPU TIME =         80.9 (      1.3 MIN)
 TOTAL WALL CLOCK TIME=         82.1 SECONDS, CPU UTILIZATION IS    98.56%

          --------------------------
             R-B3LYP SCF CALCULATION
          --------------------------
         DENSITY MATRIX CONVERGENCE THRESHOLD=  1.00E-05
     COARSE -> FINE DFT GRID SWITCH THRESHOLD=  3.00E-04 (SWITCH IN $DFT)
                   HF -> DFT SWITCH THRESHOLD=  0.00E+00 (SWOFF IN $DFT)

 ITER EX DEM     TOTAL ENERGY        E CHANGE  DENSITY CHANGE    DIIS ERROR
          * * *   INITIATING DIIS PROCEDURE   * * *
   1  0  0      -76.4121571920   -76.4121571920   0.023734154   0.087881716
   2  1  0      -76.4288670212    -0.0167098292   0.004761869   0.002526326
   3  2  0      -76.4289115025    -0.0000444813   0.001863094   0.002137741
   4  3  0      -76.4289499996    -0.0000384970   0.000509356   0.001075259
   5  4  0      -76.4289561098    -0.0000061102   0.000086638   0.000122682
   6  5  0      -76.4289562378    -0.0000001280   0.000007112   0.000009027
   7  6  0      -76.4289562389    -0.0000000011   0.000002284   0.000001688
   8  7  0      -76.4289562389    -0.0000000000   0.000000284   0.000000144

          -----------------
          DENSITY CONVERGED
          -----------------
     TIME TO FORM FOCK OPERATORS=      51.2 SECONDS (       6.4 SEC/ITER)
     TIME TO SOLVE SCF EQUATIONS=       0.6 SECONDS (       0.1 SEC/ITER)

 FINAL R-B3LYP ENERGY IS      -76.4289562389 AFTER   8 ITERATIONS
 DFT EXCHANGE + CORRELATION ENERGY =        -7.5019627186
 TOTAL ELECTRON NUMBER             =        10.0000030345
 ...... END OF RHF CALCULATION ......
 STEP CPU TIME =    51.87 TOTAL CPU TIME =        132.8 (      2.2 MIN)
 TOTAL WALL CLOCK TIME=        134.0 SECONDS, CPU UTILIZATION IS    99.11%
 ...... END OF ONE-ELECTRON INTEGRALS ......
 STEP CPU TIME =     0.00 TOTAL CPU TIME =        132.8 (      2.2 MIN)
 TOTAL WALL CLOCK TIME=        134.0 SECONDS, CPU UTILIZATION IS    99.11%

 Dipole (def):    1.4095(x),   0.9681(y),   1.0948(z);   2.0304(tot) Debye
 Dipole (rel):    1.1062(x),   0.9674(y),   1.0872(z);   1.8280(tot) Debye
 Dipole (ind):    0.3033(x),   0.0007(y),   0.0076(z);   0.3034(tot) Debye

 --------------
  Fragment  2:
 --------------

 ...... END OF ONE-ELECTRON INTEGRALS ......
 STEP CPU TIME =     0.04 TOTAL CPU TIME =        132.8 (      2.2 MIN)
 TOTAL WALL CLOCK TIME=        134.0 SECONDS, CPU UTILIZATION IS    99.11%

          --------------------------
             R-B3LYP SCF CALCULATION
          --------------------------
         DENSITY MATRIX CONVERGENCE THRESHOLD=  1.00E-05
     COARSE -> FINE DFT GRID SWITCH THRESHOLD=  3.00E-04 (SWITCH IN $DFT)
                   HF -> DFT SWITCH THRESHOLD=  0.00E+00 (SWOFF IN $DFT)

 ITER EX DEM     TOTAL ENERGY        E CHANGE  DENSITY CHANGE    DIIS ERROR
          * * *   INITIATING DIIS PROCEDURE   * * *
   1  0  0      -76.4091998134   -76.4091998134   0.047186453   0.073024390
   2  1  0      -76.4274033098    -0.0182034965   0.018160473   0.016811031
   3  2  0      -76.4259740915     0.0014292184   0.010637944   0.022021877
   4  3  0      -76.4289674942    -0.0029934027   0.000269007   0.000469490
   5  4  0      -76.4289704008    -0.0000029067   0.000045145   0.000068595
   6  5  0      -76.4289704546    -0.0000000538   0.000010739   0.000017589
   7  6  0      -76.4289704569    -0.0000000023   0.000001466   0.000001614
   8  7  0      -76.4289704569    -0.0000000000   0.000000326   0.000000280

          -----------------
          DENSITY CONVERGED
          -----------------
     TIME TO FORM FOCK OPERATORS=      51.4 SECONDS (       6.4 SEC/ITER)
     TIME TO SOLVE SCF EQUATIONS=       0.6 SECONDS (       0.1 SEC/ITER)

 FINAL R-B3LYP ENERGY IS      -76.4289704569 AFTER   8 ITERATIONS
 DFT EXCHANGE + CORRELATION ENERGY =        -7.5020095228
 TOTAL ELECTRON NUMBER             =         9.9999806523
 ...... END OF RHF CALCULATION ......
 STEP CPU TIME =    52.06 TOTAL CPU TIME =        184.9 (      3.1 MIN)
 TOTAL WALL CLOCK TIME=        186.1 SECONDS, CPU UTILIZATION IS    99.37%
 ...... END OF ONE-ELECTRON INTEGRALS ......
 STEP CPU TIME =     0.00 TOTAL CPU TIME =        184.9 (      3.1 MIN)
 TOTAL WALL CLOCK TIME=        186.1 SECONDS, CPU UTILIZATION IS    99.36%

 Dipole (def):    0.2632(x),  -1.6278(y),   1.1352(z);   2.0019(tot) Debye
 Dipole (rel):    0.2847(x),  -1.4404(y),   1.0857(z);   1.8261(tot) Debye
 Dipole (ind):   -0.0215(x),  -0.1874(y),   0.0495(z);   0.1950(tot) Debye


 Natural Energy Decomposition Analysis (Summary):

                                                            Component
                    Energy(wfn)        Energy(wfn)          (kcal/mol)
 ------------------------------------------------------------------------------
 H4O2           -152.8638929(scf)  -152.8489924(loc)      CT =   -9.350
                                                          ES =   -8.455
                                                         POL =   -5.225
                                                          XC =   -3.662
 1. H2O          -76.4121572(def)   -76.4289562(rel) DEF(SE) =   10.542(  2.417)
 2. H2O          -76.4091998(def)   -76.4289705(rel) DEF(SE) =   12.406(  0.230)
                                                              ---------
                                                           E =   -3.744


 Electrical (ES+POL+SE) :    -11.032
   Charge Transfer (CT) :     -9.350
       Core (XC+DEF-SE) :     16.639
                        ------------
  Total Interaction (E) :     -3.744

 ..... done with NBO analysis .....
 STEP CPU TIME =     7.93 TOTAL CPU TIME =        192.8 (      3.2 MIN)
 TOTAL WALL CLOCK TIME=        194.0 SECONDS, CPU UTILIZATION IS    99.39%
               975931  WORDS OF DYNAMIC MEMORY USED
 EXECUTION OF GAMESS TERMINATED NORMALLY Thu Apr 18 14:29:16 2019
 DDI: 263640 bytes (0.3 MB / 0 MWords) used by master data server.

 ----------------------------------------
 CPU timing information for all processes
 ========================================
 0: 180.16 + 11.868 = 191.884
 ----------------------------------------
Note: The following floating-point exceptions are signalling: IEEE_UNDERFLOW_FLAG IEEE_DENORMAL
 ddikick.x: exited gracefully.
unset echo
----- accounting info -----
Files used on the master node neutron were:
-rw-rw-r-- 1 ericg ericg    2505911 Apr 18 14:29 /home/ericg/scr/b.11.3.4b.dat
-rw-rw-r-- 1 ericg ericg        503 Apr 18 14:26 /home/ericg/scr/b.11.3.4b.F05
-rw-rw-r-- 1 ericg ericg 2482060608 Apr 18 14:26 /home/ericg/scr/b.11.3.4b.F08
-rw-rw-r-- 1 ericg ericg    4809840 Apr 18 14:29 /home/ericg/scr/b.11.3.4b.F10
ls: No match.
ls: No match.
ls: No match.
Thu Apr 18 14:29:19 EDT 2019
0.109u 0.285s 3:17.41 0.1%	0+0k 872+16io 8pf+0w
