----- GAMESS execution script 'rungms' -----
This job is running on host neutron
under operating system Linux at Thu Apr 18 13:44:15 EDT 2019
Available scratch disk space (Kbyte units) at beginning of the job is
Filesystem     1K-blocks      Used Available Use% Mounted on
/dev/sda2      236432240 131178492  93173980  59% /
GAMESS temporary binary files will be written to /home/ericg/scr
GAMESS supplementary output files will be written to /home/ericg/scr
Copying input file b.11.3.2.inp to your run's scratch directory...
cp -i b.11.3.2.inp /home/ericg/scr/b.11.3.2.F05
unset echo
/opt/gamess/ddikick.x /opt/gamess/gamess.00.x b.11.3.2 -ddi 1 1 neutron -scr /home/ericg/scr

 Distributed Data Interface kickoff program.
 Initiating 1 compute processes on 1 nodes to run the following command:
 /opt/gamess/gamess.00.x b.11.3.2 

          ******************************************************
          *         GAMESS VERSION = 30 SEP 2018 (R3)         *
          *             FROM IOWA STATE UNIVERSITY             *
          * M.W.SCHMIDT, K.K.BALDRIDGE, J.A.BOATZ, S.T.ELBERT, *
          *   M.S.GORDON, J.H.JENSEN, S.KOSEKI, N.MATSUNAGA,   *
          *          K.A.NGUYEN, S.J.SU, T.L.WINDUS,           *
          *       TOGETHER WITH M.DUPUIS, J.A.MONTGOMERY       *
          *         J.COMPUT.CHEM.  14, 1347-1363(1993)        *
          **************** 64 BIT LINUX VERSION ****************

  SINCE 1993, STUDENTS AND POSTDOCS WORKING AT IOWA STATE UNIVERSITY
  AND ALSO IN THEIR VARIOUS JOBS AFTER LEAVING ISU HAVE MADE IMPORTANT
  CONTRIBUTIONS TO THE CODE:
     IVANA ADAMOVIC, CHRISTINE AIKENS, YURI ALEXEEV, POOJA ARORA,
     ANDREY ASADCHEV, ROB BELL, PRADIPTA BANDYOPADHYAY, JONATHAN BENTZ,
     BRETT BODE, KURT BRORSEN, CALEB CARLIN, GALINA CHABAN, WEI CHEN,
     CHEOL HO CHOI, PAUL DAY, ALBERT DEFUSCO, NUWAN DESILVA, TIM DUDLEY,
     DMITRI FEDOROV, ALEX FINDLATER, GRAHAM FLETCHER, MARK FREITAG,
     KURT GLAESEMANN, ANASTASIA GUNINA,
     DAN KEMP, GRANT MERRILL, NORIYUKI MINEZAWA, JONATHAN MULLIN,
     TAKESHI NAGATA, SEAN NEDD, HEATHER NETZLOFF, BOSILJKA NJEGIC, RYAN OLSON,
     MIKE PAK, BUU PHAM,
     SPENCER PRUITT, LUKE ROSKOP, JIM SHOEMAKER, LYUDMILA SLIPCHENKO,
     TONY SMITH, SAROM SOK LEANG, JIE SONG, TETSUYA TAKETSUGU, SIMON WEBB,
     PENG XU, SOOHAENG YOO, FEDERICO ZAHARIEV

  ADDITIONAL CODE HAS BEEN PROVIDED BY COLLABORATORS IN OTHER GROUPS:
     IOWA STATE UNIVERSITY:
          JOE IVANIC, AARON WEST, LAIMUTIS BYTAUTAS, KLAUS RUEDENBERG
     UNIVERSITY OF TOKYO: KIMIHIKO HIRAO, TAKAHITO NAKAJIMA,
          TAKAO TSUNEDA, MUNEAKI KAMIYA, SUSUMU YANAGISAWA,
          KIYOSHI YAGI, MAHITO CHIBA, SEIKEN TOKURA, NAOAKI KAWAKAMI
     UNIVERSITY OF AARHUS: FRANK JENSEN
     UNIVERSITY OF IOWA: VISVALDAS KAIRYS, HUI LI
     NATIONAL INST. OF STANDARDS AND TECHNOLOGY: WALT STEVENS, DAVID GARMER
     UNIVERSITY OF PISA: BENEDETTA MENNUCCI, JACOPO TOMASI
     UNIVERSITY OF MEMPHIS: HENRY KURTZ, PRAKASHAN KORAMBATH
     UNIVERSITY OF ALBERTA: TOBY ZENG, MARIUSZ KLOBUKOWSKI
     UNIVERSITY OF NEW ENGLAND: MARK SPACKMAN
     MIE UNIVERSITY: HIROAKI UMEDA
     NAT. INST. OF ADVANCED INDUSTRIAL SCIENCE AND TECHNOLOGY: KAZUO KITAURA
     MICHIGAN STATE UNIVERSITY:
          KAROL KOWALSKI, MARTA WLOCH, JEFFREY GOUR, JESSE LUTZ,
          WEI LI, JUN SHEN, J. EMILIANO DEUSTUA, PIOTR PIECUCH
     UNIVERSITY OF MINNESOTA:
          YINAN SHU
     UNIVERSITY OF SILESIA: MONIKA MUSIAL, STANISLAW KUCHARSKI
     FACULTES UNIVERSITAIRES NOTRE-DAME DE LA PAIX:
          OLIVIER QUINET, BENOIT CHAMPAGNE
     UNIVERSITY OF CALIFORNIA - SANTA BARBARA: BERNARD KIRTMAN
     INSTITUTE FOR MOLECULAR SCIENCE:
          KAZUYA ISHIMURA, MICHIO KATOUDA, AND SHIGERU NAGASE
     UNIVERSITY OF NOTRE DAME: ANNA POMOGAEVA, DAN CHIPMAN
     KYUSHU UNIVERSITY:
          HARUYUKI NAKANO,
          FENG LONG GU, JACEK KORCHOWIEC, MARCIN MAKOWSKI, AND YURIKO AOKI,
          HIROTOSHI MORI AND EISAKU MIYOSHI
     PENNSYLVANIA STATE UNIVERSITY:
          TZVETELIN IORDANOV, CHET SWALINA, JONATHAN SKONE,
          SHARON HAMMES-SCHIFFER
     WASEDA UNIVERSITY:
          MASATO KOBAYASHI, TOMOKO AKAMA, TSUGUKI TOUMA,
          TAKESHI YOSHIKAWA, YASUHIRO IKABATA, JUNJI SEINO,
          YUYA NAKAJIMA, HIROMI NAKAI
     NANJING UNIVERSITY: SHUHUA LI
     UNIVERSITY OF NEBRASKA:
          PEIFENG SU, DEJUN SI, NANDUN THELLAMUREGE, YALI WANG, HUI LI
     UNIVERSITY OF ZURICH: ROBERTO PEVERATI, KIM BALDRIDGE
     N. COPERNICUS UNIVERSITY AND JACKSON STATE UNIVERSITY:
          MARIA BARYSZ
     UNIVERSITY OF COPENHAGEN: Jimmy Kromann, CASPER STEINMANN
     TOKYO INSTITUTE OF TECHNOLOGY: HIROYA NAKATA
     NAGOYA UNIVERSITY: YOSHIO NISHIMOTO, STEPHAN IRLE
     MOSCOW STATE UNIVERSITY: VLADIMIR MIRONOV

 EXECUTION OF GAMESS BEGUN Thu Apr 18 13:44:15 2019

            ECHO OF THE FIRST FEW INPUT CARDS -
 INPUT CARD> $contrl  scftyp=uhf  runtyp=energy  mult=2  nosym=1  $end                      
 INPUT CARD> $basis  gbasis=n31  ngauss=6  ndfunc=1  npfunc=1                               
 INPUT CARD>         diffsp=.t.  diffs=.t.  $end                                            
 INPUT CARD> $nbo  $end                                                                     
 INPUT CARD> $del                                                                           
 INPUT CARD>   alpha neda end                                                               
 INPUT CARD>    beta neda end                                                               
 INPUT CARD> $end                                                                           
 INPUT CARD> $data                                                                          
 INPUT CARD>Na..OH2 (uhf/6-31++G**)                                                         
 INPUT CARD>Cnv 2                                                                           
 INPUT CARD>                                                                                
 INPUT CARD> Na         11.0    .0000000000    .0000000000   -.3404656616                   
 INPUT CARD> O           8.0    .0000000000    .0000000000   2.0240196206                   
 INPUT CARD> H           1.0    .0000000000    .7627333242   2.5832459068                   
 INPUT CARD> $end                                                                           
    1000000 WORDS OF MEMORY AVAILABLE

     BASIS OPTIONS
     -------------
     GBASIS=N31          IGAUSS=       6      POLAR=POPN31  
     NDFUNC=       1     NFFUNC=       0     DIFFSP=       T
     NPFUNC=       1      DIFFS=       T     BASNAM=        


     RUN TITLE
     ---------
 Na..OH2 (uhf/6-31++G**)                                                         

 THE POINT GROUP OF THE MOLECULE IS CNV     
 THE ORDER OF THE PRINCIPAL AXIS IS     2

 ATOM      ATOMIC                      COORDINATES (BOHR)
           CHARGE         X                   Y                   Z
 NA         11.0     0.0000000000        0.0000000000       -0.6433868087
 O           8.0     0.0000000000        0.0000000000        3.8248424767
 H           1.0    -0.0000000000       -1.4413569844        4.8816269228
 H           1.0     0.0000000000        1.4413569844        4.8816269228

          INTERNUCLEAR DISTANCES (ANGS.)
          ------------------------------

                1 NA         2 O          3 H          4 H     

   1 NA      0.0000000    2.3644853 *  3.0215644    3.0215644  
   2 O       2.3644853 *  0.0000000    0.9457781 *  0.9457781 *
   3 H       3.0215644    0.9457781 *  0.0000000    1.5254666 *
   4 H       3.0215644    0.9457781 *  1.5254666 *  0.0000000  

  * ... LESS THAN  3.000


     ATOMIC BASIS SET
     ----------------
 THE CONTRACTED PRIMITIVE FUNCTIONS HAVE BEEN UNNORMALIZED
 THE CONTRACTED BASIS FUNCTIONS ARE NOW NORMALIZED TO UNITY

  SHELL TYPE  PRIMITIVE        EXPONENT          CONTRACTION COEFFICIENT(S)

 NA        

      1   S       1          9993.2000000    0.001937659277
      1   S       2          1499.8900000    0.014806994478
      1   S       3           341.9510000    0.072705472884
      1   S       4            94.6796000    0.252628905780
      1   S       5            29.7345000    0.493241816042
      1   S       6            10.0063000    0.313168883201

      2   L       7           150.9630000   -0.003542083504    0.005001659710
      2   L       8            35.5878000   -0.043958843482    0.035510897939
      2   L       9            11.1683000   -0.109752108561    0.142824991711
      2   L      10             3.9020100    0.187398185364    0.338619980347
      2   L      11             1.3817700    0.646699639678    0.451578973792
      2   L      12             0.4663820    0.306058302735    0.273270984140

      3   L      13             0.4979660   -0.248503159333   -0.023022500428
      3   L      14             0.0843529   -0.131704084445    0.950359017650
      3   L      15             0.0666350    1.233520790897    0.059857901112

      4   L      16             0.0259544    1.000000000000    1.000000000000

      5   L      17             0.0076000    1.000000000000    1.000000000000

      6   D      18             0.1750000    1.000000000000

 O         

      7   S      19          5484.6716600    0.001831074430
      7   S      20           825.2349460    0.013950172200
      7   S      21           188.0469580    0.068445078098
      7   S      22            52.9645000    0.232714335992
      7   S      23            16.8975704    0.470192897984
      7   S      24             5.7996353    0.358520852987

      8   L      25            15.5396162   -0.110777549525    0.070874268231
      8   L      26             3.5999336   -0.148026262701    0.339752839147
      8   L      27             1.0137618    1.130767015354    0.727158577316

      9   L      28             0.2700058    1.000000000000    1.000000000000

     10   L      29             0.0845000    1.000000000000    1.000000000000

     11   D      30             0.8000000    1.000000000000

 H         

     16   S      31            18.7311370    0.033494604338
     16   S      32             2.8253944    0.234726953484
     16   S      33             0.6401217    0.813757326146

     17   S      34             0.1612778    1.000000000000

     18   S      35             0.0360000    1.000000000000

     19   P      36             1.1000000    1.000000000000

 TOTAL NUMBER OF BASIS SET SHELLS             =   19
 NUMBER OF CARTESIAN GAUSSIAN BASIS FUNCTIONS =   54
 NUMBER OF ELECTRONS                          =   21
 CHARGE OF MOLECULE                           =    0
 SPIN MULTIPLICITY                            =    2
 NUMBER OF OCCUPIED ORBITALS (ALPHA)          =   11
 NUMBER OF OCCUPIED ORBITALS (BETA )          =   10
 TOTAL NUMBER OF ATOMS                        =    4
 THE NUCLEAR REPULSION ENERGY IS       32.8466795311

     $CONTRL OPTIONS
     ---------------
 SCFTYP=UHF          RUNTYP=ENERGY       EXETYP=RUN     
 MPLEVL=       0     CITYP =NONE         CCTYP =NONE         VBTYP =NONE    
 DFTTYP=NONE         TDDFT =NONE    
 MULT  =       2     ICHARG=       0     NZVAR =       0     COORD =UNIQUE  
 PP    =NONE         RELWFN=NONE         LOCAL =NONE         NUMGRD=       F
 ISPHER=      -1     NOSYM =       1     MAXIT =      30     UNITS =ANGS    
 PLTORB=       F     MOLPLT=       F     AIMPAC=       F     FRIEND=        
 NPRINT=       7     IREST =       0     GEOM  =INPUT   
 NORMF =       0     NORMP =       0     ITOL  =      20     ICUT  =       9
 INTTYP=BEST         GRDTYP=BEST         QMTTOL= 1.0E-06

     $SYSTEM OPTIONS
     ---------------
  REPLICATED MEMORY=     1000000 WORDS (ON EVERY NODE).
 DISTRIBUTED MEMDDI=           0 MILLION WORDS IN AGGREGATE,
 MEMDDI DISTRIBUTED OVER   1 PROCESSORS IS           0 WORDS/PROCESSOR.
 TOTAL MEMORY REQUESTED ON EACH PROCESSOR=     1000000 WORDS.
 TIMLIM=      525600.00 MINUTES, OR     365.0 DAYS.
 PARALL= F  BALTYP=  DLB     KDIAG=    0  COREFL= F
 MXSEQ2=     300 MXSEQ3=     150  mem10=         0

          ----------------
          PROPERTIES INPUT
          ----------------

     MOMENTS            FIELD           POTENTIAL          DENSITY
 IEMOM =       1   IEFLD =       0   IEPOT =       0   IEDEN =       0
 WHERE =COMASS     WHERE =NUCLEI     WHERE =NUCLEI     WHERE =NUCLEI  
 OUTPUT=BOTH       OUTPUT=BOTH       OUTPUT=BOTH       OUTPUT=BOTH    
 IEMINT=       0   IEFINT=       0                     IEDINT=       0
                                                       MORB  =       0
          EXTRAPOLATION IN EFFECT
          SOSCF IN EFFECT
          DIIS or SOSCF will be reset if energy rises
 ORBITAL PRINTING OPTION: NPREO=     1    54     2     1

     -------------------------------
     INTEGRAL TRANSFORMATION OPTIONS
     -------------------------------
     NWORD  =            0
     CUTOFF = 1.0E-09     MPTRAN =       0
     DIRTRF =       F     AOINTS =DUP     

          ----------------------
          INTEGRAL INPUT OPTIONS
          ----------------------
 NOPK  =       1 NORDER=       0 SCHWRZ=       F

     ------------------------------------------
     THE POINT GROUP IS C1 , NAXIS= 1, ORDER= 1
     ------------------------------------------

     DIMENSIONS OF THE SYMMETRY SUBSPACES ARE
 A   =   54

 ..... DONE SETTING UP THE RUN .....
 STEP CPU TIME =     0.00 TOTAL CPU TIME =          0.0 (      0.0 MIN)
 TOTAL WALL CLOCK TIME=          0.0 SECONDS, CPU UTILIZATION IS     0.00%

          ********************
          1 ELECTRON INTEGRALS
          ********************
 ...... END OF ONE-ELECTRON INTEGRALS ......
 STEP CPU TIME =     0.00 TOTAL CPU TIME =          0.0 (      0.0 MIN)
 TOTAL WALL CLOCK TIME=          0.0 SECONDS, CPU UTILIZATION IS     0.00%

          -------------
          GUESS OPTIONS
          -------------
          GUESS =HUCKEL            NORB  =       0          NORDER=       0
          MIX   =       F          PRTMO =       F          PUNMO =       F
          TOLZ  = 1.0E-08          TOLE  = 1.0E-05
          SYMDEN=       F          PURIFY=       F

 INITIAL GUESS ORBITALS GENERATED BY HUCKEL   ROUTINE.
 HUCKEL GUESS REQUIRES     25065 WORDS.

 SYMMETRIES FOR INITIAL GUESS ORBITALS FOLLOW.  ALPHA SET(S).
    11 ORBITALS ARE OCCUPIED (    6 CORE ORBITALS).
     7=A        8=A        9=A       10=A       11=A       12=A       13=A   
    14=A       15=A       16=A       17=A       18=A       19=A       20=A   
    21=A   

 SYMMETRIES FOR INITIAL GUESS ORBITALS FOLLOW.   BETA SET(S).
    10 ORBITALS ARE OCCUPIED (    6 CORE ORBITALS).
     7=A        8=A        9=A       10=A       11=A       12=A       13=A   
    14=A       15=A       16=A       17=A       18=A       19=A       20=A   
 ...... END OF INITIAL ORBITAL SELECTION ......
 STEP CPU TIME =     0.00 TOTAL CPU TIME =          0.0 (      0.0 MIN)
 TOTAL WALL CLOCK TIME=          0.0 SECONDS, CPU UTILIZATION IS     0.00%

                    ----------------------
                    AO INTEGRAL TECHNOLOGY
                    ----------------------
     S,P,L SHELL ROTATED AXIS INTEGRALS, REPROGRAMMED BY
        KAZUYA ISHIMURA (IMS) AND JOSE SIERRA (SYNSTAR).
     S,P,D,L SHELL ROTATED AXIS INTEGRALS PROGRAMMED BY
        KAZUYA ISHIMURA (INSTITUTE FOR MOLECULAR SCIENCE).
     S,P,D,F,G SHELL TO TOTAL QUARTET ANGULAR MOMENTUM SUM 5,
        ERIC PROGRAM BY GRAHAM FLETCHER (ELORET AND NASA ADVANCED
        SUPERCOMPUTING DIVISION, AMES RESEARCH CENTER).
     S,P,D,F,G,L SHELL GENERAL RYS QUADRATURE PROGRAMMED BY
        MICHEL DUPUIS (PACIFIC NORTHWEST NATIONAL LABORATORY).

          --------------------
          2 ELECTRON INTEGRALS
          --------------------

 THE -PK- OPTION IS OFF, THE INTEGRALS ARE NOT IN SUPERMATRIX FORM.
 STORING   15000 INTEGRALS/RECORD ON DISK, USING 12 BYTES/INTEGRAL.
 TWO ELECTRON INTEGRAL EVALUATION REQUIRES   90586 WORDS OF MEMORY.
 II,JST,KST,LST =  1  1  1  1 NREC =         1 INTLOC =    1
 II,JST,KST,LST =  2  1  1  1 NREC =         1 INTLOC =    2
 II,JST,KST,LST =  3  1  1  1 NREC =         1 INTLOC =   34
 II,JST,KST,LST =  4  1  1  1 NREC =         1 INTLOC =  214
 II,JST,KST,LST =  5  1  1  1 NREC =         1 INTLOC =  776
 II,JST,KST,LST =  6  1  1  1 NREC =         1 INTLOC = 2074
 II,JST,KST,LST =  7  1  1  1 NREC =         1 INTLOC = 5929
 II,JST,KST,LST =  8  1  1  1 NREC =         1 INTLOC = 7966
 II,JST,KST,LST =  9  1  1  1 NREC =         2 INTLOC = 3216
 II,JST,KST,LST = 10  1  1  1 NREC =         3 INTLOC = 4246
 II,JST,KST,LST = 11  1  1  1 NREC =         4 INTLOC =12214
 II,JST,KST,LST = 12  1  1  1 NREC =         7 INTLOC =14679
 II,JST,KST,LST = 13  1  1  1 NREC =         9 INTLOC = 6107
 II,JST,KST,LST = 14  1  1  1 NREC =        10 INTLOC =14884
 II,JST,KST,LST = 15  1  1  1 NREC =        12 INTLOC =10531
 II,JST,KST,LST = 16  1  1  1 NREC =        17 INTLOC =13959
 II,JST,KST,LST = 17  1  1  1 NREC =        20 INTLOC =  921
 II,JST,KST,LST = 18  1  1  1 NREC =        22 INTLOC = 5982
 II,JST,KST,LST = 19  1  1  1 NREC =        24 INTLOC =13469
 TOTAL NUMBER OF NONZERO TWO-ELECTRON INTEGRALS =              470329
         32 INTEGRAL RECORDS WERE STORED ON DISK FILE  8.
  ...... END OF TWO-ELECTRON INTEGRALS .....
 STEP CPU TIME =     0.07 TOTAL CPU TIME =          0.1 (      0.0 MIN)
 TOTAL WALL CLOCK TIME=          0.1 SECONDS, CPU UTILIZATION IS    87.50%

          ---------------------------
                  UHF SCF CALCULATION
          ---------------------------

     NUCLEAR ENERGY =        32.8466795311
     MAXIT = 30     NPUNCH=  2     MULT=  2
     EXTRAP=T  DAMP=F  SHIFT=F  RSTRCT=F  DIIS=F  SOSCF=T
     DENSITY MATRIX CONV=  1.00E-05
     SOSCF WILL OPTIMIZE     473 ALPHA AND     440 BETA ROTATION ANGLES.
     SOGTOL= 2.500E-01
     MEMORY REQUIRED FOR UHF/ROHF ITERS=     66415 WORDS.

 ITER EX      TOTAL ENERGY        E CHANGE  DENSITY CHANGE    ORB. GRAD 
   1  0     -237.5357407622  -237.5357407622   0.272731240   0.000000000
          ---------------START SECOND ORDER SCF---------------
   2  1     -237.8593994395    -0.3236586773   0.112913976   0.045128752
   3  2     -237.8782721390    -0.0188726995   0.066593777   0.016266906
   4  3     -237.8812002092    -0.0029280702   0.012918223   0.005741615
   5  4     -237.8814824890    -0.0002822798   0.010740579   0.001366565
   6  5     -237.8815262300    -0.0000437409   0.005170542   0.000538829
   7  6     -237.8815314408    -0.0000052109   0.002396145   0.000255324
   8  7     -237.8815326044    -0.0000011636   0.000531496   0.000115830
   9  8     -237.8815328321    -0.0000002277   0.000262516   0.000039256
  10  9     -237.8815328592    -0.0000000271   0.000161490   0.000010209
  11 10     -237.8815328623    -0.0000000031   0.000049952   0.000006673
  12 11     -237.8815328627    -0.0000000004   0.000004225   0.000001999
  13 12     -237.8815328627    -0.0000000000   0.000004782   0.000000478

          -----------------
          DENSITY CONVERGED
          -----------------
     TIME TO FORM FOCK OPERATORS=       0.1 SECONDS (       0.0 SEC/ITER)
     TIME TO SOLVE SCF EQUATIONS=       0.0 SECONDS (       0.0 SEC/ITER)

 FINAL UHF ENERGY IS     -237.8815328627 AFTER  13 ITERATIONS

          --------------------
          SPIN SZ   =    0.500
          S-SQUARED =    0.750
          --------------------

  ----- ALPHA SET ----- 

          ------------
          EIGENVECTORS
          ------------

                      1          2          3          4          5
                  -40.4679   -20.6297    -2.7830    -1.5027    -1.5025
                     A          A          A          A          A   
    1  NA 1  S    0.997908  -0.000001  -0.245817   0.000037  -0.000000
    2  NA 1  S    0.009057   0.000036   1.027787  -0.000141  -0.000000
    3  NA 1  X    0.000000   0.000000  -0.000000   0.000000  -0.000000
    4  NA 1  Y    0.000000   0.000000  -0.000000   0.000000   0.997669
    5  NA 1  Z    0.000019  -0.000022  -0.000311   0.993903  -0.000000
    6  NA 1  S    0.000456   0.000092  -0.002597   0.001484  -0.000000
    7  NA 1  X    0.000000   0.000000  -0.000000   0.000000  -0.000000
    8  NA 1  Y    0.000000   0.000000  -0.000000   0.000000   0.012905
    9  NA 1  Z    0.000690  -0.000182  -0.002910   0.009338  -0.000000
   10  NA 1  S    0.000697   0.000152   0.003518  -0.000165  -0.000000
   11  NA 1  X    0.000000   0.000000  -0.000000   0.000000  -0.000000
   12  NA 1  Y    0.000000   0.000000  -0.000000   0.000000  -0.002469
   13  NA 1  Z    0.000269   0.000200   0.000497  -0.000617  -0.000000
   14  NA 1  S    0.000000  -0.000024  -0.000864  -0.000122  -0.000000
   15  NA 1  X    0.000000   0.000000  -0.000000   0.000000  -0.000000
   16  NA 1  Y    0.000000   0.000000  -0.000000   0.000000   0.000649
   17  NA 1  Z   -0.000003  -0.000052   0.000087   0.000030  -0.000000
   18  NA 1 XX   -0.000336   0.000045  -0.001561   0.000303  -0.000000
   19  NA 1 YY   -0.000316   0.000051  -0.001459   0.000453  -0.000000
   20  NA 1 ZZ   -0.000329  -0.000238  -0.003921  -0.002631  -0.000000
   21  NA 1 XY    0.000000   0.000000  -0.000000   0.000000  -0.000000
   22  NA 1 XZ    0.000000   0.000000  -0.000000   0.000000  -0.000000
   23  NA 1 YZ    0.000000   0.000000  -0.000000   0.000000  -0.000147
   24  O  2  S   -0.000077   0.994569  -0.000279  -0.017130  -0.000000
   25  O  2  S   -0.000331   0.020968   0.000403   0.037625  -0.000000
   26  O  2  X    0.000000   0.000000  -0.000000   0.000000  -0.000000
   27  O  2  Y    0.000000   0.000000  -0.000000   0.000000   0.000799
   28  O  2  Z    0.000067   0.001390  -0.000571  -0.001630  -0.000000
   29  O  2  S    0.001592   0.005513   0.001075   0.036012  -0.000000
   30  O  2  X    0.000000   0.000000  -0.000000   0.000000  -0.000000
   31  O  2  Y    0.000000   0.000000  -0.000000   0.000000   0.001008
   32  O  2  Z   -0.000469  -0.000668  -0.001227  -0.004379  -0.000000
   33  O  2  S   -0.000789  -0.000458   0.004367   0.000187  -0.000000
   34  O  2  X    0.000000   0.000000  -0.000000   0.000000  -0.000000
   35  O  2  Y    0.000000   0.000000  -0.000000   0.000000  -0.000816
   36  O  2  Z    0.001642   0.000459  -0.001255   0.001600  -0.000000
   37  O  2 XX   -0.000226  -0.004226  -0.000114  -0.000304  -0.000000
   38  O  2 YY   -0.000225  -0.004141   0.000115   0.000472  -0.000000
   39  O  2 ZZ   -0.000244  -0.004150   0.000529   0.002289  -0.000000
   40  O  2 XY    0.000000   0.000000  -0.000000   0.000000  -0.000000
   41  O  2 XZ    0.000000   0.000000  -0.000000   0.000000  -0.000000
   42  O  2 YZ    0.000000   0.000000  -0.000000   0.000000  -0.000367
   43  H  3  S    0.000030   0.000148  -0.000085   0.009273  -0.000208
   44  H  3  S   -0.000374  -0.000402  -0.000726  -0.000812   0.000085
   45  H  3  S   -0.000390  -0.000027  -0.000525   0.000185  -0.000889
   46  H  3  X    0.000000   0.000000  -0.000000   0.000000  -0.000000
   47  H  3  Y    0.000005  -0.000237  -0.000041   0.001273  -0.000103
   48  H  3  Z   -0.000034   0.000191   0.000125  -0.000761  -0.000021
   49  H  4  S    0.000030   0.000148  -0.000085   0.009273   0.000208
   50  H  4  S   -0.000374  -0.000402  -0.000726  -0.000812  -0.000085
   51  H  4  S   -0.000390  -0.000027  -0.000525   0.000185   0.000889
   52  H  4  X    0.000000   0.000000  -0.000000   0.000000  -0.000000
   53  H  4  Y   -0.000005   0.000237   0.000041  -0.001273  -0.000103
   54  H  4  Z   -0.000034   0.000191   0.000125  -0.000761   0.000021

                      6          7          8          9         10
                   -1.5023    -1.4124    -0.7823    -0.6474    -0.5625
                     A          A          A          A          A   
    1  NA 1  S    0.000000   0.001415   0.000000  -0.006798  -0.000000
    2  NA 1  S    0.000000  -0.005512   0.000000   0.041414  -0.000000
    3  NA 1  X    0.997728  -0.000000   0.000000   0.000000  -0.011960
    4  NA 1  Y    0.000000  -0.000000  -0.006952   0.000000  -0.000000
    5  NA 1  Z    0.000000  -0.088138   0.000000   0.055029  -0.000000
    6  NA 1  S    0.000000   0.009981   0.000000  -0.003358  -0.000000
    7  NA 1  X    0.012515  -0.000000   0.000000   0.000000   0.000167
    8  NA 1  Y    0.000000  -0.000000   0.001126   0.000000  -0.000000
    9  NA 1  Z    0.000000   0.004966   0.000000   0.017150  -0.000000
   10  NA 1  S    0.000000   0.000672   0.000000   0.001813  -0.000000
   11  NA 1  X   -0.002180  -0.000000   0.000000   0.000000   0.001580
   12  NA 1  Y    0.000000  -0.000000   0.001039   0.000000  -0.000000
   13  NA 1  Z    0.000000   0.001417   0.000000  -0.004012  -0.000000
   14  NA 1  S    0.000000  -0.001460   0.000000  -0.001913  -0.000000
   15  NA 1  X    0.000651  -0.000000   0.000000   0.000000   0.000077
   16  NA 1  Y    0.000000  -0.000000  -0.001385   0.000000  -0.000000
   17  NA 1  Z    0.000000  -0.001451   0.000000   0.000969  -0.000000
   18  NA 1 XX    0.000000  -0.000508   0.000000   0.001053  -0.000000
   19  NA 1 YY    0.000000  -0.000175   0.000000   0.000715  -0.000000
   20  NA 1 ZZ    0.000000   0.000074   0.000000   0.008275  -0.000000
   21  NA 1 XY    0.000000  -0.000000   0.000000   0.000000  -0.000000
   22  NA 1 XZ   -0.000300  -0.000000   0.000000   0.000000  -0.000465
   23  NA 1 YZ    0.000000  -0.000000  -0.001446   0.000000  -0.000000
   24  O  2  S    0.000000  -0.211968   0.000000   0.062037  -0.000000
   25  O  2  S    0.000000   0.473613   0.000000  -0.149555  -0.000000
   26  O  2  X    0.000979  -0.000000   0.000000   0.000000   0.637262
   27  O  2  Y    0.000000  -0.000000   0.510873   0.000000  -0.000000
   28  O  2  Z    0.000000   0.078760   0.000000   0.560107  -0.000000
   29  O  2  S    0.000000   0.435261   0.000000  -0.250329  -0.000000
   30  O  2  X    0.000894  -0.000000   0.000000   0.000000   0.453239
   31  O  2  Y    0.000000  -0.000000   0.286736   0.000000  -0.000000
   32  O  2  Z    0.000000   0.022672   0.000000   0.382616  -0.000000
   33  O  2  S    0.000000   0.004554   0.000000  -0.067970  -0.000000
   34  O  2  X   -0.000507  -0.000000   0.000000   0.000000   0.084430
   35  O  2  Y    0.000000  -0.000000   0.003569   0.000000  -0.000000
   36  O  2  Z    0.000000   0.015806   0.000000   0.064754  -0.000000
   37  O  2 XX    0.000000  -0.000766   0.000000  -0.011936  -0.000000
   38  O  2 YY    0.000000   0.005588   0.000000  -0.004790  -0.000000
   39  O  2 ZZ    0.000000   0.007978   0.000000   0.020927  -0.000000
   40  O  2 XY    0.000000  -0.000000   0.000000   0.000000  -0.000000
   41  O  2 XZ   -0.000376  -0.000000   0.000000   0.000000   0.020934
   42  O  2 YZ    0.000000  -0.000000   0.029633   0.000000  -0.000000
   43  H  3  S    0.000000   0.145119  -0.239233   0.141074  -0.000000
   44  H  3  S    0.000000  -0.004145  -0.098607   0.070184  -0.000000
   45  H  3  S    0.000000   0.002110  -0.015193   0.003452  -0.000000
   46  H  3  X    0.000021  -0.000000   0.000000   0.000000   0.021416
   47  H  3  Y    0.000000   0.021635  -0.012638   0.016545  -0.000000
   48  H  3  Z    0.000000  -0.013043   0.018927   0.004322  -0.000000
   49  H  4  S    0.000000   0.145119   0.239233   0.141074  -0.000000
   50  H  4  S    0.000000  -0.004145   0.098607   0.070184  -0.000000
   51  H  4  S    0.000000   0.002110   0.015193   0.003452  -0.000000
   52  H  4  X    0.000021  -0.000000   0.000000   0.000000   0.021416
   53  H  4  Y    0.000000  -0.021635  -0.012638  -0.016545  -0.000000
   54  H  4  Z    0.000000  -0.013043  -0.018927   0.004322  -0.000000

                     11         12         13         14         15
                   -0.1523     0.0053     0.0126     0.0147     0.0274
                     A          A          A          A          A   
    1  NA 1  S    0.030212  -0.003830   0.000000  -0.000000  -0.009219
    2  NA 1  S   -0.174682   0.042782   0.000000  -0.000000   0.096625
    3  NA 1  X   -0.000000  -0.000000   0.000000  -0.029384  -0.000000
    4  NA 1  Y   -0.000000  -0.000000  -0.032531  -0.000000  -0.000000
    5  NA 1  Z    0.039504  -0.026301   0.000000  -0.000000  -0.003234
    6  NA 1  S    0.396863   0.201089   0.000000  -0.000000   0.438433
    7  NA 1  X   -0.000000  -0.000000   0.000000   0.083365  -0.000000
    8  NA 1  Y   -0.000000  -0.000000   0.091710  -0.000000  -0.000000
    9  NA 1  Z   -0.087923   0.064828   0.000000  -0.000000  -0.070258
   10  NA 1  S    0.652345  -0.757628   0.000000  -0.000000  -1.332488
   11  NA 1  X   -0.000000  -0.000000   0.000000  -0.025103  -0.000000
   12  NA 1  Y   -0.000000  -0.000000  -0.015896  -0.000000  -0.000000
   13  NA 1  Z   -0.084297  -0.119292   0.000000  -0.000000   0.245089
   14  NA 1  S    0.059825   0.714317   0.000000  -0.000000   1.515151
   15  NA 1  X   -0.000000  -0.000000   0.000000   0.996920  -0.000000
   16  NA 1  Y   -0.000000  -0.000000   0.939647  -0.000000  -0.000000
   17  NA 1  Z    0.001996   0.791086   0.000000  -0.000000  -0.540537
   18  NA 1 XX   -0.004719  -0.041503   0.000000  -0.000000  -0.100670
   19  NA 1 YY    0.001742  -0.041667   0.000000  -0.000000  -0.102779
   20  NA 1 ZZ   -0.014459  -0.046410   0.000000  -0.000000  -0.110712
   21  NA 1 XY   -0.000000  -0.000000   0.000000  -0.000000  -0.000000
   22  NA 1 XZ   -0.000000  -0.000000   0.000000  -0.006351  -0.000000
   23  NA 1 YZ   -0.000000  -0.000000  -0.002493  -0.000000  -0.000000
   24  O  2  S    0.021612   0.016198   0.000000  -0.000000  -0.007648
   25  O  2  S   -0.054306  -0.034060   0.000000  -0.000000   0.025804
   26  O  2  X   -0.000000  -0.000000   0.000000  -0.029787  -0.000000
   27  O  2  Y   -0.000000  -0.000000  -0.032073  -0.000000  -0.000000
   28  O  2  Z    0.028078  -0.051429   0.000000  -0.000000  -0.002560
   29  O  2  S   -0.115497  -0.116631   0.000000  -0.000000   0.019078
   30  O  2  X   -0.000000  -0.000000   0.000000  -0.029372  -0.000000
   31  O  2  Y   -0.000000  -0.000000  -0.028195  -0.000000  -0.000000
   32  O  2  Z    0.013281  -0.051565   0.000000  -0.000000  -0.002330
   33  O  2  S   -0.190548  -0.213432   0.000000  -0.000000   0.221418
   34  O  2  X   -0.000000  -0.000000   0.000000  -0.006569  -0.000000
   35  O  2  Y   -0.000000  -0.000000  -0.052557  -0.000000  -0.000000
   36  O  2  Z    0.035796  -0.071167   0.000000  -0.000000  -0.042803
   37  O  2 XX   -0.000073   0.003969   0.000000  -0.000000   0.001839
   38  O  2 YY    0.000314   0.003553   0.000000  -0.000000   0.001521
   39  O  2 ZZ    0.002825   0.000893   0.000000  -0.000000   0.002302
   40  O  2 XY   -0.000000  -0.000000   0.000000  -0.000000  -0.000000
   41  O  2 XZ   -0.000000  -0.000000   0.000000  -0.001359  -0.000000
   42  O  2 YZ   -0.000000  -0.000000  -0.002127  -0.000000  -0.000000
   43  H  3  S    0.012293   0.001989   0.007459  -0.000000  -0.004051
   44  H  3  S    0.059931   0.086829  -0.013523  -0.000000  -0.032022
   45  H  3  S    0.033530   0.203918  -0.233310  -0.000000  -0.135525
   46  H  3  X   -0.000000  -0.000000   0.000000  -0.000355  -0.000000
   47  H  3  Y   -0.001357  -0.004087   0.001536  -0.000000   0.001102
   48  H  3  Z    0.001631   0.002270  -0.000948  -0.000000  -0.000612
   49  H  4  S    0.012293   0.001989  -0.007459  -0.000000  -0.004051
   50  H  4  S    0.059931   0.086829   0.013523  -0.000000  -0.032022
   51  H  4  S    0.033530   0.203918   0.233310  -0.000000  -0.135525
   52  H  4  X   -0.000000  -0.000000   0.000000  -0.000355  -0.000000
   53  H  4  Y    0.001357   0.004087   0.001536  -0.000000  -0.001102
   54  H  4  Z    0.001631   0.002270   0.000948  -0.000000  -0.000612

                     16         17         18         19         20
                    0.0514     0.0522     0.0563     0.0727     0.0765
                     A          A          A          A          A   
    1  NA 1  S   -0.000036   0.000000  -0.000000  -0.000000   0.003680
    2  NA 1  S    0.010689   0.000000  -0.000000  -0.000000  -0.067427
    3  NA 1  X   -0.000000   0.000000  -0.068090  -0.000000   0.000000
    4  NA 1  Y   -0.000000  -0.065663  -0.000000   0.026412   0.000000
    5  NA 1  Z    0.034641   0.000000  -0.000000  -0.000000  -0.029387
    6  NA 1  S    0.115947   0.000000  -0.000000  -0.000000  -0.477514
    7  NA 1  X   -0.000000   0.000000   0.003052  -0.000000   0.000000
    8  NA 1  Y   -0.000000   0.016824  -0.000000   0.035975   0.000000
    9  NA 1  Z   -0.033881   0.000000  -0.000000  -0.000000   0.001793
   10  NA 1  S    0.156684   0.000000  -0.000000  -0.000000   1.828038
   11  NA 1  X   -0.000000   0.000000   1.348612  -0.000000   0.000000
   12  NA 1  Y   -0.000000   1.207359  -0.000000  -0.842156   0.000000
   13  NA 1  Z   -0.396739   0.000000  -0.000000  -0.000000   2.047533
   14  NA 1  S    0.585035   0.000000  -0.000000  -0.000000   0.145521
   15  NA 1  X   -0.000000   0.000000  -0.879300  -0.000000   0.000000
   16  NA 1  Y   -0.000000  -0.947820  -0.000000  -0.085880   0.000000
   17  NA 1  Z    0.987285   0.000000  -0.000000  -0.000000  -0.192349
   18  NA 1 XX   -0.009993   0.000000  -0.000000  -0.000000   0.081538
   19  NA 1 YY   -0.012401   0.000000  -0.000000  -0.000000   0.085119
   20  NA 1 ZZ   -0.029737   0.000000  -0.000000  -0.000000   0.063308
   21  NA 1 XY   -0.000000   0.000000  -0.000000  -0.000000   0.000000
   22  NA 1 XZ   -0.000000   0.000000  -0.006355  -0.000000   0.000000
   23  NA 1 YZ   -0.000000   0.003109  -0.000000   0.033196   0.000000
   24  O  2  S   -0.028402   0.000000  -0.000000  -0.000000   0.007196
   25  O  2  S    0.099445   0.000000  -0.000000  -0.000000  -0.007699
   26  O  2  X   -0.000000   0.000000  -0.053649  -0.000000   0.000000
   27  O  2  Y   -0.000000  -0.051699  -0.000000  -0.091526   0.000000
   28  O  2  Z    0.076720   0.000000  -0.000000  -0.000000   0.066748
   29  O  2  S    0.086391   0.000000  -0.000000  -0.000000  -0.078039
   30  O  2  X   -0.000000   0.000000  -0.037216  -0.000000   0.000000
   31  O  2  Y   -0.000000  -0.030582  -0.000000  -0.043278   0.000000
   32  O  2  Z    0.092723   0.000000  -0.000000  -0.000000   0.023751
   33  O  2  S    1.186358   0.000000  -0.000000  -0.000000   0.365458
   34  O  2  X   -0.000000   0.000000  -0.091491  -0.000000   0.000000
   35  O  2  Y   -0.000000  -0.166239  -0.000000  -0.567240   0.000000
   36  O  2  Z    0.192541   0.000000  -0.000000  -0.000000   0.324461
   37  O  2 XX    0.006659   0.000000  -0.000000  -0.000000   0.004274
   38  O  2 YY    0.006531   0.000000  -0.000000  -0.000000   0.001329
   39  O  2 ZZ    0.012694   0.000000  -0.000000  -0.000000   0.002586
   40  O  2 XY   -0.000000   0.000000  -0.000000  -0.000000   0.000000
   41  O  2 XZ   -0.000000   0.000000  -0.003801  -0.000000   0.000000
   42  O  2 YZ   -0.000000  -0.003827  -0.000000   0.004763   0.000000
   43  H  3  S   -0.010096   0.017208  -0.000000   0.006827   0.010700
   44  H  3  S   -0.247943  -0.026473  -0.000000  -0.165494  -0.062078
   45  H  3  S   -1.017718  -0.492284  -0.000000  -2.946397  -1.319008
   46  H  3  X   -0.000000   0.000000  -0.001418  -0.000000   0.000000
   47  H  3  Y    0.007001   0.002965  -0.000000   0.006551   0.003153
   48  H  3  Z   -0.003877  -0.001592  -0.000000  -0.006957  -0.002927
   49  H  4  S   -0.010096  -0.017208  -0.000000  -0.006827   0.010700
   50  H  4  S   -0.247943   0.026473  -0.000000   0.165494  -0.062078
   51  H  4  S   -1.017718   0.492284  -0.000000   2.946397  -1.319008
   52  H  4  X   -0.000000   0.000000  -0.001418  -0.000000   0.000000
   53  H  4  Y   -0.007001   0.002965  -0.000000   0.006551  -0.003153
   54  H  4  Z   -0.003877   0.001592  -0.000000   0.006957  -0.002927

                     21         22         23         24         25
                    0.1715     0.2267     0.2327     0.2456     0.2604
                     A          A          A          A          A   
    1  NA 1  S    0.031100  -0.000000  -0.000000  -0.000000   0.002890
    2  NA 1  S    0.098095  -0.000000  -0.000000  -0.000000   0.093125
    3  NA 1  X   -0.000000  -0.000000  -0.204795  -0.068551   0.000000
    4  NA 1  Y   -0.000000   0.203706  -0.000000  -0.000000   0.000000
    5  NA 1  Z    0.040128  -0.000000  -0.000000  -0.000000  -0.129426
    6  NA 1  S    4.101867  -0.000000  -0.000000  -0.000000   1.147439
    7  NA 1  X   -0.000000  -0.000000   1.466898   0.281601   0.000000
    8  NA 1  Y   -0.000000  -1.291875  -0.000000  -0.000000   0.000000
    9  NA 1  Z   -0.649385  -0.000000  -0.000000  -0.000000   1.033781
   10  NA 1  S   -4.051779  -0.000000  -0.000000  -0.000000  -0.449206
   11  NA 1  X   -0.000000  -0.000000  -1.084591  -0.785195   0.000000
   12  NA 1  Y   -0.000000   1.341952  -0.000000  -0.000000   0.000000
   13  NA 1  Z    0.199054  -0.000000  -0.000000  -0.000000  -0.677682
   14  NA 1  S    1.012617  -0.000000  -0.000000  -0.000000   0.416645
   15  NA 1  X   -0.000000  -0.000000   0.391083   0.190008   0.000000
   16  NA 1  Y   -0.000000  -0.435960  -0.000000  -0.000000   0.000000
   17  NA 1  Z   -0.192592  -0.000000  -0.000000  -0.000000   0.448893
   18  NA 1 XX   -0.621658  -0.000000  -0.000000  -0.000000  -0.100125
   19  NA 1 YY   -0.612375  -0.000000  -0.000000  -0.000000  -0.108255
   20  NA 1 ZZ   -0.753237  -0.000000  -0.000000  -0.000000  -0.176171
   21  NA 1 XY   -0.000000  -0.000000  -0.000000  -0.000000   0.000000
   22  NA 1 XZ   -0.000000  -0.000000  -0.005901  -0.023566   0.000000
   23  NA 1 YZ   -0.000000   0.013172  -0.000000  -0.000000   0.000000
   24  O  2  S    0.015862  -0.000000  -0.000000  -0.000000   0.094050
   25  O  2  S   -0.003127  -0.000000  -0.000000  -0.000000  -0.060240
   26  O  2  X   -0.000000  -0.000000   0.038506  -0.212035   0.000000
   27  O  2  Y   -0.000000   0.015767  -0.000000  -0.000000   0.000000
   28  O  2  Z    0.052632  -0.000000  -0.000000  -0.000000  -0.086531
   29  O  2  S   -0.248962  -0.000000  -0.000000  -0.000000  -1.255841
   30  O  2  X   -0.000000  -0.000000   0.133158  -0.520230   0.000000
   31  O  2  Y   -0.000000   0.007793  -0.000000  -0.000000   0.000000
   32  O  2  Z    0.061583  -0.000000  -0.000000  -0.000000  -0.119484
   33  O  2  S    0.331960  -0.000000  -0.000000  -0.000000   2.524290
   34  O  2  X   -0.000000  -0.000000  -0.471006   1.344396   0.000000
   35  O  2  Y   -0.000000  -0.613658  -0.000000  -0.000000   0.000000
   36  O  2  Z   -0.513447  -0.000000  -0.000000  -0.000000   1.110516
   37  O  2 XX    0.007429  -0.000000  -0.000000  -0.000000   0.057986
   38  O  2 YY    0.011966  -0.000000  -0.000000  -0.000000   0.065468
   39  O  2 ZZ    0.025292  -0.000000  -0.000000  -0.000000   0.065670
   40  O  2 XY   -0.000000  -0.000000  -0.000000  -0.000000   0.000000
   41  O  2 XZ   -0.000000  -0.000000  -0.006974  -0.008054   0.000000
   42  O  2 YZ   -0.000000   0.014663  -0.000000  -0.000000   0.000000
   43  H  3  S    0.010107  -0.031104  -0.000000  -0.000000   0.059870
   44  H  3  S    0.094128  -0.403245  -0.000000  -0.000000  -0.161733
   45  H  3  S    0.269202  -0.013266  -0.000000  -0.000000  -1.011403
   46  H  3  X   -0.000000  -0.000000  -0.005213   0.006428   0.000000
   47  H  3  Y    0.000617  -0.002463  -0.000000  -0.000000  -0.013402
   48  H  3  Z    0.002399  -0.002282  -0.000000  -0.000000   0.010274
   49  H  4  S    0.010107   0.031104  -0.000000  -0.000000   0.059870
   50  H  4  S    0.094128   0.403245  -0.000000  -0.000000  -0.161733
   51  H  4  S    0.269202   0.013266  -0.000000  -0.000000  -1.011403
   52  H  4  X   -0.000000  -0.000000  -0.005213   0.006428   0.000000
   53  H  4  Y   -0.000617  -0.002463  -0.000000  -0.000000   0.013402
   54  H  4  Z    0.002399   0.002282  -0.000000  -0.000000   0.010274

                     26         27         28         29         30
                    0.2943     0.3008     0.3481     0.3499     0.4048
                     A          A          A          A          A   
    1  NA 1  S   -0.013286  -0.000000  -0.002628  -0.000000   0.005403
    2  NA 1  S    0.106678  -0.000000   0.269027  -0.000000  -0.390092
    3  NA 1  X   -0.000000  -0.000000   0.000000  -0.000000  -0.000000
    4  NA 1  Y   -0.000000   0.058160   0.000000   0.042319  -0.000000
    5  NA 1  Z    0.166874  -0.000000  -0.029356  -0.000000  -0.012378
    6  NA 1  S   -0.180959  -0.000000   2.499093  -0.000000  -3.612128
    7  NA 1  X   -0.000000  -0.000000   0.000000  -0.000000  -0.000000
    8  NA 1  Y   -0.000000  -0.793619   0.000000  -0.556388  -0.000000
    9  NA 1  Z   -0.964955  -0.000000   1.202404  -0.000000  -1.717526
   10  NA 1  S    0.875096  -0.000000  -0.702402  -0.000000   0.688916
   11  NA 1  X   -0.000000  -0.000000   0.000000  -0.000000  -0.000000
   12  NA 1  Y   -0.000000   0.383418   0.000000   0.151140  -0.000000
   13  NA 1  Z    1.289101  -0.000000  -0.127291  -0.000000  -0.164121
   14  NA 1  S    0.232920  -0.000000   0.158484  -0.000000  -0.151710
   15  NA 1  X   -0.000000  -0.000000   0.000000  -0.000000  -0.000000
   16  NA 1  Y   -0.000000   0.083831   0.000000  -0.084760  -0.000000
   17  NA 1  Z   -0.050652  -0.000000  -0.002006  -0.000000   0.078022
   18  NA 1 XX    0.025199  -0.000000  -0.139717  -0.000000   0.567808
   19  NA 1 YY   -0.051664  -0.000000  -0.376836  -0.000000   0.297119
   20  NA 1 ZZ    0.199849  -0.000000  -0.266481  -0.000000   0.326869
   21  NA 1 XY   -0.000000  -0.000000   0.000000  -0.000000  -0.000000
   22  NA 1 XZ   -0.000000  -0.000000   0.000000  -0.000000  -0.000000
   23  NA 1 YZ   -0.000000   0.000006   0.000000   0.206866  -0.000000
   24  O  2  S    0.011330  -0.000000  -0.071294  -0.000000   0.030080
   25  O  2  S    0.017464  -0.000000   0.005491  -0.000000   0.006788
   26  O  2  X   -0.000000  -0.000000   0.000000  -0.000000  -0.000000
   27  O  2  Y   -0.000000  -0.206150   0.000000   0.252270  -0.000000
   28  O  2  Z   -0.190634  -0.000000   0.100686  -0.000000   0.169086
   29  O  2  S   -0.228027  -0.000000   1.392793  -0.000000  -0.484161
   30  O  2  X   -0.000000  -0.000000   0.000000  -0.000000  -0.000000
   31  O  2  Y   -0.000000  -0.494933   0.000000   0.762885  -0.000000
   32  O  2  Z   -0.314095  -0.000000   0.396442  -0.000000   0.613308
   33  O  2  S    2.572154  -0.000000   1.753171  -0.000000   5.083854
   34  O  2  X   -0.000000  -0.000000   0.000000  -0.000000  -0.000000
   35  O  2  Y   -0.000000   2.480937   0.000000   1.198849  -0.000000
   36  O  2  Z    1.501685  -0.000000   2.514292  -0.000000  -1.458247
   37  O  2 XX    0.020801  -0.000000  -0.044719  -0.000000   0.040207
   38  O  2 YY    0.012540  -0.000000  -0.063116  -0.000000   0.034089
   39  O  2 ZZ    0.005781  -0.000000  -0.024989  -0.000000   0.028715
   40  O  2 XY   -0.000000  -0.000000   0.000000  -0.000000  -0.000000
   41  O  2 XZ   -0.000000  -0.000000   0.000000  -0.000000  -0.000000
   42  O  2 YZ   -0.000000  -0.023412   0.000000   0.000798  -0.000000
   43  H  3  S    0.013026  -0.028684  -0.109951   0.126026  -0.034694
   44  H  3  S   -0.687965   0.493141  -2.322426   2.037506  -1.462028
   45  H  3  S   -1.274504   2.432699  -0.281232  -0.285194  -0.046146
   46  H  3  X   -0.000000  -0.000000   0.000000  -0.000000  -0.000000
   47  H  3  Y   -0.006133   0.004573  -0.001660   0.014308  -0.017731
   48  H  3  Z    0.008037   0.001314   0.016816   0.001125  -0.000925
   49  H  4  S    0.013026   0.028684  -0.109951  -0.126026  -0.034694
   50  H  4  S   -0.687965  -0.493141  -2.322426  -2.037506  -1.462028
   51  H  4  S   -1.274504  -2.432699  -0.281232   0.285194  -0.046146
   52  H  4  X   -0.000000  -0.000000   0.000000  -0.000000  -0.000000
   53  H  4  Y    0.006133   0.004573   0.001660   0.014308   0.017731
   54  H  4  Z    0.008037  -0.001314   0.016816  -0.001125  -0.000925

                     31         32         33         34         35
                    0.4803     0.4897     0.5280     0.6219     0.6246
                     A          A          A          A          A   
    1  NA 1  S   -0.000000  -0.000727   0.000000   0.000000   0.006688
    2  NA 1  S   -0.000000  -0.009768   0.000000   0.000000   0.253748
    3  NA 1  X   -0.000000   0.000000  -0.008578   0.000000   0.000000
    4  NA 1  Y   -0.000000   0.000000   0.000000   0.031616   0.000000
    5  NA 1  Z   -0.000000   0.000742   0.000000   0.000000   0.010458
    6  NA 1  S   -0.000000  -0.149942   0.000000   0.000000   8.677830
    7  NA 1  X   -0.000000   0.000000   0.110789   0.000000   0.000000
    8  NA 1  Y   -0.000000   0.000000   0.000000  -0.598519   0.000000
    9  NA 1  Z   -0.000000  -0.128542   0.000000   0.000000  -0.309021
   10  NA 1  S   -0.000000   0.083433   0.000000   0.000000  -3.686486
   11  NA 1  X   -0.000000   0.000000   0.154475   0.000000   0.000000
   12  NA 1  Y   -0.000000   0.000000   0.000000  -0.037726   0.000000
   13  NA 1  Z   -0.000000   0.046740   0.000000   0.000000  -0.106655
   14  NA 1  S   -0.000000   0.037849   0.000000   0.000000   0.619692
   15  NA 1  X   -0.000000   0.000000  -0.031019   0.000000   0.000000
   16  NA 1  Y   -0.000000   0.000000   0.000000   0.064767   0.000000
   17  NA 1  Z   -0.000000   0.031797   0.000000   0.000000  -0.057012
   18  NA 1 XX   -0.000000  -0.844606   0.000000   0.000000  -2.744762
   19  NA 1 YY   -0.000000   0.851655   0.000000   0.000000  -2.760168
   20  NA 1 ZZ   -0.000000   0.014438   0.000000   0.000000  -3.260874
   21  NA 1 XY    0.999695   0.000000   0.000000   0.000000   0.000000
   22  NA 1 XZ   -0.000000   0.000000   1.072268   0.000000   0.000000
   23  NA 1 YZ   -0.000000   0.000000   0.000000  -1.209569   0.000000
   24  O  2  S   -0.000000  -0.006408   0.000000   0.000000  -0.010929
   25  O  2  S   -0.000000   0.012261   0.000000   0.000000   0.008519
   26  O  2  X   -0.000000   0.000000  -0.026308   0.000000   0.000000
   27  O  2  Y   -0.000000   0.000000   0.000000   0.129630   0.000000
   28  O  2  Z   -0.000000   0.043247   0.000000   0.000000  -0.029723
   29  O  2  S   -0.000000   0.122686   0.000000   0.000000   0.025469
   30  O  2  X   -0.000000   0.000000   0.046559   0.000000   0.000000
   31  O  2  Y   -0.000000   0.000000   0.000000   0.273377   0.000000
   32  O  2  Z   -0.000000   0.169224   0.000000   0.000000  -0.273158
   33  O  2  S   -0.000000   1.568556   0.000000   0.000000   0.073971
   34  O  2  X   -0.000000   0.000000  -0.460897   0.000000   0.000000
   35  O  2  Y   -0.000000   0.000000   0.000000   2.210772   0.000000
   36  O  2  Z   -0.000000   0.363218   0.000000   0.000000  -0.175501
   37  O  2 XX   -0.000000   0.001153   0.000000   0.000000  -0.000854
   38  O  2 YY   -0.000000   0.000209   0.000000   0.000000  -0.003071
   39  O  2 ZZ   -0.000000   0.003836   0.000000   0.000000  -0.015688
   40  O  2 XY    0.010141   0.000000   0.000000   0.000000   0.000000
   41  O  2 XZ   -0.000000   0.000000  -0.034622   0.000000   0.000000
   42  O  2 YZ   -0.000000   0.000000   0.000000   0.006338   0.000000
   43  H  3  S   -0.000000  -0.039346   0.000000   0.040856   0.013832
   44  H  3  S   -0.000000  -0.781566   0.000000   1.646368  -0.003185
   45  H  3  S   -0.000000  -0.220589   0.000000   0.820895   0.244167
   46  H  3  X   -0.001740   0.000000  -0.013629   0.000000   0.000000
   47  H  3  Y   -0.000000  -0.000842   0.000000   0.006217  -0.004778
   48  H  3  Z   -0.000000   0.001167   0.000000   0.010271  -0.012666
   49  H  4  S   -0.000000  -0.039346   0.000000  -0.040856   0.013832
   50  H  4  S   -0.000000  -0.781566   0.000000  -1.646368  -0.003185
   51  H  4  S   -0.000000  -0.220589   0.000000  -0.820895   0.244167
   52  H  4  X    0.001740   0.000000  -0.013629   0.000000   0.000000
   53  H  4  Y   -0.000000   0.000842   0.000000   0.006217   0.004778
   54  H  4  Z   -0.000000   0.001167   0.000000  -0.010271  -0.012666

                     36         37         38         39         40
                    0.7156     1.1983     1.2483     1.3794     1.3833
                     A          A          A          A          A   
    1  NA 1  S    0.007787  -0.000000   0.000938  -0.000000   0.000000
    2  NA 1  S    0.302158  -0.000000  -0.021195  -0.000000   0.000000
    3  NA 1  X    0.000000  -0.000000   0.000000   0.010758   0.000000
    4  NA 1  Y    0.000000   0.001771   0.000000  -0.000000   0.013341
    5  NA 1  Z   -0.072601  -0.000000  -0.003249  -0.000000   0.000000
    6  NA 1  S    5.269757  -0.000000  -0.103377  -0.000000   0.000000
    7  NA 1  X    0.000000  -0.000000   0.000000  -0.011723   0.000000
    8  NA 1  Y    0.000000  -0.282881   0.000000  -0.000000   0.032330
    9  NA 1  Z    1.931058  -0.000000  -0.117699  -0.000000   0.000000
   10  NA 1  S   -1.364993  -0.000000   0.075850  -0.000000   0.000000
   11  NA 1  X    0.000000  -0.000000   0.000000   0.170290   0.000000
   12  NA 1  Y    0.000000  -0.070452   0.000000  -0.000000   0.030324
   13  NA 1  Z   -0.001883  -0.000000   0.065753  -0.000000   0.000000
   14  NA 1  S    0.217324  -0.000000   0.052937  -0.000000   0.000000
   15  NA 1  X    0.000000  -0.000000   0.000000  -0.027639   0.000000
   16  NA 1  Y    0.000000   0.013220   0.000000  -0.000000  -0.079162
   17  NA 1  Z   -0.057425  -0.000000   0.042115  -0.000000   0.000000
   18  NA 1 XX   -1.774647  -0.000000   0.053697  -0.000000   0.000000
   19  NA 1 YY   -1.799022  -0.000000  -0.026772  -0.000000   0.000000
   20  NA 1 ZZ    0.362937  -0.000000  -0.075799  -0.000000   0.000000
   21  NA 1 XY    0.000000  -0.000000   0.000000  -0.000000   0.000000
   22  NA 1 XZ    0.000000  -0.000000   0.000000  -0.045377   0.000000
   23  NA 1 YZ    0.000000  -0.203836   0.000000  -0.000000  -0.119660
   24  O  2  S    0.015755  -0.000000  -0.014037  -0.000000   0.000000
   25  O  2  S   -0.094333  -0.000000   0.692863  -0.000000   0.000000
   26  O  2  X    0.000000  -0.000000   0.000000  -0.993349   0.000000
   27  O  2  Y    0.000000  -0.486266   0.000000  -0.000000  -0.740283
   28  O  2  Z    0.112736  -0.000000   0.494078  -0.000000   0.000000
   29  O  2  S    0.211983  -0.000000  -1.869739  -0.000000   0.000000
   30  O  2  X    0.000000  -0.000000   0.000000   1.466804   0.000000
   31  O  2  Y    0.000000   0.657174   0.000000  -0.000000   1.895709
   32  O  2  Z    0.289295  -0.000000  -0.793368  -0.000000   0.000000
   33  O  2  S   -2.941201  -0.000000  -1.525511  -0.000000   0.000000
   34  O  2  X    0.000000  -0.000000   0.000000  -0.739161   0.000000
   35  O  2  Y    0.000000   1.371513   0.000000  -0.000000  -1.205716
   36  O  2  Z    1.187562  -0.000000  -0.650514  -0.000000   0.000000
   37  O  2 XX   -0.036044  -0.000000   0.335978  -0.000000   0.000000
   38  O  2 YY   -0.019304  -0.000000  -0.130653  -0.000000   0.000000
   39  O  2 ZZ    0.044213  -0.000000   0.101353  -0.000000   0.000000
   40  O  2 XY    0.000000  -0.000000   0.000000  -0.000000   0.000000
   41  O  2 XZ    0.000000  -0.000000   0.000000   0.031302   0.000000
   42  O  2 YZ    0.000000   0.401252   0.000000  -0.000000  -0.069211
   43  H  3  S   -0.010937  -0.654603  -0.621568  -0.000000   0.484736
   44  H  3  S    0.187705   2.281014   2.101359  -0.000000  -0.080577
   45  H  3  S    0.108801  -0.010762  -0.117513  -0.000000  -0.910222
   46  H  3  X    0.000000  -0.000000   0.000000   0.009041   0.000000
   47  H  3  Y    0.008333   0.136494   0.190259  -0.000000   0.147854
   48  H  3  Z    0.022066  -0.151554  -0.086020  -0.000000  -0.045643
   49  H  4  S   -0.010937   0.654603  -0.621568  -0.000000  -0.484736
   50  H  4  S    0.187705  -2.281014   2.101359  -0.000000   0.080577
   51  H  4  S    0.108801   0.010762  -0.117513  -0.000000   0.910222
   52  H  4  X    0.000000  -0.000000   0.000000   0.009041   0.000000
   53  H  4  Y   -0.008333   0.136494  -0.190259  -0.000000   0.147854
   54  H  4  Z    0.022066   0.151554  -0.086020  -0.000000   0.045643

                     41         42         43         44         45
                    1.4530     1.6387     1.7377     1.9152     2.0047
                     A          A          A          A          A   
    1  NA 1  S    0.005939  -0.008044  -0.000000   0.000000  -0.001297
    2  NA 1  S   -0.093385   0.102086  -0.000000   0.000000  -0.097827
    3  NA 1  X    0.000000  -0.000000  -0.000000  -0.014166  -0.000000
    4  NA 1  Y    0.000000  -0.000000  -0.000000   0.000000  -0.000000
    5  NA 1  Z    0.006134   0.027000  -0.000000   0.000000   0.012770
    6  NA 1  S   -0.077694   0.347617  -0.000000   0.000000  -0.600022
    7  NA 1  X    0.000000  -0.000000  -0.000000   0.121323  -0.000000
    8  NA 1  Y    0.000000  -0.000000  -0.000000   0.000000  -0.000000
    9  NA 1  Z    0.077551  -0.167880  -0.000000   0.000000  -1.194354
   10  NA 1  S   -0.393506   0.075922  -0.000000   0.000000  -0.019804
   11  NA 1  X    0.000000  -0.000000  -0.000000  -0.039773  -0.000000
   12  NA 1  Y    0.000000  -0.000000  -0.000000   0.000000  -0.000000
   13  NA 1  Z   -0.310648   0.238636  -0.000000   0.000000   0.198537
   14  NA 1  S   -0.074325  -0.121453  -0.000000   0.000000   0.050734
   15  NA 1  X    0.000000  -0.000000  -0.000000   0.012655  -0.000000
   16  NA 1  Y    0.000000  -0.000000  -0.000000   0.000000  -0.000000
   17  NA 1  Z   -0.034898  -0.154909  -0.000000   0.000000  -0.018348
   18  NA 1 XX   -0.132910   0.059308  -0.000000   0.000000   0.114108
   19  NA 1 YY   -0.147313   0.059853  -0.000000   0.000000   0.124030
   20  NA 1 ZZ    0.174506  -0.434369  -0.000000   0.000000  -0.839786
   21  NA 1 XY    0.000000  -0.000000  -0.028357   0.000000  -0.000000
   22  NA 1 XZ    0.000000  -0.000000  -0.000000   0.189114  -0.000000
   23  NA 1 YZ    0.000000  -0.000000  -0.000000   0.000000  -0.000000
   24  O  2  S   -0.030838  -0.101245  -0.000000   0.000000   0.019924
   25  O  2  S   -0.158652  -1.770182  -0.000000   0.000000   0.045514
   26  O  2  X    0.000000  -0.000000  -0.000000   0.016705  -0.000000
   27  O  2  Y    0.000000  -0.000000  -0.000000   0.000000  -0.000000
   28  O  2  Z   -0.724399   0.318620  -0.000000   0.000000   0.217211
   29  O  2  S    0.638111   4.326250  -0.000000   0.000000  -0.426566
   30  O  2  X    0.000000  -0.000000  -0.000000  -0.265052  -0.000000
   31  O  2  Y    0.000000  -0.000000  -0.000000   0.000000  -0.000000
   32  O  2  Z    1.570069  -0.526548  -0.000000   0.000000  -0.953633
   33  O  2  S   -1.400101  -2.559648  -0.000000   0.000000   1.752545
   34  O  2  X    0.000000  -0.000000  -0.000000  -0.031684  -0.000000
   35  O  2  Y    0.000000  -0.000000  -0.000000   0.000000  -0.000000
   36  O  2  Z   -1.370842   0.148631  -0.000000   0.000000  -0.433846
   37  O  2 XX    0.077268  -0.298797  -0.000000   0.000000  -0.411387
   38  O  2 YY   -0.284285  -0.686110  -0.000000   0.000000  -0.306130
   39  O  2 ZZ    0.119875  -0.562630  -0.000000   0.000000   0.805722
   40  O  2 XY    0.000000  -0.000000   0.673608   0.000000  -0.000000
   41  O  2 XZ    0.000000  -0.000000  -0.000000   0.805029  -0.000000
   42  O  2 YZ    0.000000  -0.000000  -0.000000   0.000000  -0.000000
   43  H  3  S   -0.520754  -0.231664  -0.000000   0.000000   0.279886
   44  H  3  S    0.580784   0.211497  -0.000000   0.000000  -0.180763
   45  H  3  S    0.577785   0.360448  -0.000000   0.000000  -0.129097
   46  H  3  X    0.000000  -0.000000  -0.347044   0.289722  -0.000000
   47  H  3  Y    0.023977   0.047062  -0.000000   0.000000   0.160001
   48  H  3  Z    0.136272   0.002717  -0.000000   0.000000   0.229909
   49  H  4  S   -0.520754  -0.231664  -0.000000   0.000000   0.279886
   50  H  4  S    0.580784   0.211497  -0.000000   0.000000  -0.180763
   51  H  4  S    0.577785   0.360448  -0.000000   0.000000  -0.129097
   52  H  4  X    0.000000  -0.000000   0.347044   0.289722  -0.000000
   53  H  4  Y   -0.023977  -0.047062  -0.000000   0.000000  -0.160001
   54  H  4  Z    0.136272   0.002717  -0.000000   0.000000   0.229909

                     46         47         48         49         50
                    2.5390     2.5545     2.8839     2.9378     2.9520
                     A          A          A          A          A   
    1  NA 1  S   -0.000000  -0.001089  -0.000000  -0.000000  -0.000000
    2  NA 1  S   -0.000000   0.002909  -0.000000  -0.000000  -0.000000
    3  NA 1  X   -0.000000   0.000000  -0.000000  -0.000688  -0.000000
    4  NA 1  Y    0.006622   0.000000   0.002265  -0.000000  -0.000000
    5  NA 1  Z   -0.000000   0.014582  -0.000000  -0.000000  -0.000000
    6  NA 1  S   -0.000000  -0.033991  -0.000000  -0.000000  -0.000000
    7  NA 1  X   -0.000000   0.000000  -0.000000   0.002741  -0.000000
    8  NA 1  Y   -0.089916   0.000000  -0.141254  -0.000000  -0.000000
    9  NA 1  Z   -0.000000   0.040256  -0.000000  -0.000000  -0.000000
   10  NA 1  S   -0.000000  -0.039594  -0.000000  -0.000000  -0.000000
   11  NA 1  X   -0.000000   0.000000  -0.000000  -0.020398  -0.000000
   12  NA 1  Y    0.030435   0.000000  -0.010476  -0.000000  -0.000000
   13  NA 1  Z   -0.000000  -0.040686  -0.000000  -0.000000  -0.000000
   14  NA 1  S   -0.000000  -0.041888  -0.000000  -0.000000  -0.000000
   15  NA 1  X   -0.000000   0.000000  -0.000000   0.001971  -0.000000
   16  NA 1  Y   -0.012370   0.000000   0.020611  -0.000000  -0.000000
   17  NA 1  Z   -0.000000  -0.028420  -0.000000  -0.000000  -0.000000
   18  NA 1 XX   -0.000000   0.034237  -0.000000  -0.000000  -0.000000
   19  NA 1 YY   -0.000000  -0.019112  -0.000000  -0.000000  -0.000000
   20  NA 1 ZZ   -0.000000   0.034351  -0.000000  -0.000000  -0.000000
   21  NA 1 XY   -0.000000   0.000000  -0.000000  -0.000000  -0.019095
   22  NA 1 XZ   -0.000000   0.000000  -0.000000  -0.002703  -0.000000
   23  NA 1 YZ   -0.120075   0.000000  -0.102907  -0.000000  -0.000000
   24  O  2  S   -0.000000  -0.061295  -0.000000  -0.000000  -0.000000
   25  O  2  S   -0.000000  -0.657681  -0.000000  -0.000000  -0.000000
   26  O  2  X   -0.000000   0.000000  -0.000000   0.002167  -0.000000
   27  O  2  Y   -0.109619   0.000000   0.401376  -0.000000  -0.000000
   28  O  2  Z   -0.000000  -0.207275  -0.000000  -0.000000  -0.000000
   29  O  2  S   -0.000000   1.648692  -0.000000  -0.000000  -0.000000
   30  O  2  X   -0.000000   0.000000  -0.000000  -0.528965  -0.000000
   31  O  2  Y    0.683855   0.000000  -0.577688  -0.000000  -0.000000
   32  O  2  Z   -0.000000   0.733457  -0.000000  -0.000000  -0.000000
   33  O  2  S   -0.000000  -0.954139  -0.000000  -0.000000  -0.000000
   34  O  2  X   -0.000000   0.000000  -0.000000   0.119016  -0.000000
   35  O  2  Y    0.031148   0.000000   0.832802  -0.000000  -0.000000
   36  O  2  Z   -0.000000  -0.333103  -0.000000  -0.000000  -0.000000
   37  O  2 XX   -0.000000  -1.058847  -0.000000  -0.000000  -0.000000
   38  O  2 YY   -0.000000   0.483039  -0.000000  -0.000000  -0.000000
   39  O  2 ZZ   -0.000000  -0.006310  -0.000000  -0.000000  -0.000000
   40  O  2 XY   -0.000000   0.000000  -0.000000  -0.000000   0.909815
   41  O  2 XZ   -0.000000   0.000000  -0.000000  -0.723309  -0.000000
   42  O  2 YZ   -0.064743   0.000000  -0.793851  -0.000000  -0.000000
   43  H  3  S    0.210322  -0.768492  -0.676541  -0.000000  -0.000000
   44  H  3  S    0.163945   0.320757   0.863757  -0.000000  -0.000000
   45  H  3  S   -0.031182   0.190731   0.266192  -0.000000  -0.000000
   46  H  3  X   -0.000000   0.000000  -0.000000   0.777101   0.725776
   47  H  3  Y   -0.500872   0.136162   0.285774  -0.000000  -0.000000
   48  H  3  Z   -0.567529  -0.198336  -0.335695  -0.000000  -0.000000
   49  H  4  S   -0.210322  -0.768492   0.676541  -0.000000  -0.000000
   50  H  4  S   -0.163945   0.320757  -0.863757  -0.000000  -0.000000
   51  H  4  S    0.031182   0.190731  -0.266192  -0.000000  -0.000000
   52  H  4  X   -0.000000   0.000000  -0.000000   0.777101  -0.725776
   53  H  4  Y   -0.500872  -0.136162   0.285774  -0.000000  -0.000000
   54  H  4  Z    0.567529  -0.198336   0.335695  -0.000000  -0.000000

                     51         52         53         54
                    3.3718     3.7478     3.9282     4.5071
                     A          A          A          A   
    1  NA 1  S   -0.000593  -0.001308   0.000000  -0.002753
    2  NA 1  S    0.022045   0.019315   0.000000   0.055050
    3  NA 1  X    0.000000   0.000000   0.000000  -0.000000
    4  NA 1  Y    0.000000   0.000000   0.002090  -0.000000
    5  NA 1  Z    0.003153   0.008711   0.000000  -0.007012
    6  NA 1  S    0.075637   0.107679   0.000000   0.182483
    7  NA 1  X    0.000000   0.000000   0.000000  -0.000000
    8  NA 1  Y    0.000000   0.000000  -0.031855  -0.000000
    9  NA 1  Z    0.246503   0.056885   0.000000  -0.109222
   10  NA 1  S   -0.008854  -0.073767   0.000000   0.101796
   11  NA 1  X    0.000000   0.000000   0.000000  -0.000000
   12  NA 1  Y    0.000000   0.000000  -0.007261  -0.000000
   13  NA 1  Z   -0.072752  -0.033230   0.000000   0.174815
   14  NA 1  S   -0.007571  -0.052984   0.000000  -0.071369
   15  NA 1  X    0.000000   0.000000   0.000000  -0.000000
   16  NA 1  Y    0.000000   0.000000  -0.029203  -0.000000
   17  NA 1  Z    0.013532  -0.047422   0.000000  -0.091199
   18  NA 1 XX   -0.001641  -0.022073   0.000000   0.032561
   19  NA 1 YY    0.013275  -0.016128   0.000000   0.039196
   20  NA 1 ZZ    0.162568   0.000940   0.000000  -0.238575
   21  NA 1 XY    0.000000   0.000000   0.000000  -0.000000
   22  NA 1 XZ    0.000000   0.000000   0.000000  -0.000000
   23  NA 1 YZ    0.000000   0.000000  -0.051333  -0.000000
   24  O  2  S   -0.005046  -0.230930   0.000000  -0.493414
   25  O  2  S   -0.063549   0.232806   0.000000  -0.284451
   26  O  2  X    0.000000   0.000000   0.000000  -0.000000
   27  O  2  Y    0.000000   0.000000   0.768239  -0.000000
   28  O  2  Z   -0.050901   0.504429   0.000000  -0.345699
   29  O  2  S    0.232876   2.995298   0.000000   4.220007
   30  O  2  X    0.000000   0.000000   0.000000  -0.000000
   31  O  2  Y    0.000000   0.000000   1.544518  -0.000000
   32  O  2  Z    0.641862   0.838132   0.000000  -0.639781
   33  O  2  S    0.011564  -0.226679   0.000000  -1.516020
   34  O  2  X    0.000000   0.000000   0.000000  -0.000000
   35  O  2  Y    0.000000   0.000000  -0.263184  -0.000000
   36  O  2  Z    0.141612   0.064166   0.000000   0.214630
   37  O  2 XX   -0.054306  -1.128526   0.000000  -1.442022
   38  O  2 YY   -0.835073   0.165833   0.000000  -2.288308
   39  O  2 ZZ    0.850451  -0.366596   0.000000  -1.875319
   40  O  2 XY    0.000000   0.000000   0.000000  -0.000000
   41  O  2 XZ    0.000000   0.000000   0.000000  -0.000000
   42  O  2 YZ    0.000000   0.000000   1.495309  -0.000000
   43  H  3  S   -0.029635  -0.834581   1.325793   0.691309
   44  H  3  S   -0.232618  -0.732767   0.478699   0.023993
   45  H  3  S    0.012143   0.202477  -0.397210   0.171204
   46  H  3  X    0.000000   0.000000   0.000000  -0.000000
   47  H  3  Y   -0.493779  -0.799942   0.846541   0.572476
   48  H  3  Z   -0.702954   0.524679  -0.661384  -0.391855
   49  H  4  S   -0.029635  -0.834581  -1.325793   0.691309
   50  H  4  S   -0.232618  -0.732767  -0.478699   0.023993
   51  H  4  S    0.012143   0.202477   0.397210   0.171204
   52  H  4  X    0.000000   0.000000   0.000000  -0.000000
   53  H  4  Y    0.493779   0.799942   0.846541  -0.572476
   54  H  4  Z   -0.702954   0.524679   0.661384  -0.391855

  ----- BETA SET ----- 

          ------------
          EIGENVECTORS
          ------------

                      1          2          3          4          5
                  -40.4660   -20.6290    -2.7777    -1.5007    -1.5005
                     A          A          A          A          A   
    1  NA 1  S    0.997903  -0.000001  -0.245816   0.000000   0.000000
    2  NA 1  S    0.009079   0.000037   1.027566   0.000000   0.000000
    3  NA 1  X    0.000000   0.000000   0.000000   0.000000   0.998458
    4  NA 1  Y    0.000000   0.000000   0.000000   0.998427   0.000000
    5  NA 1  Z    0.000022  -0.000022   0.001549   0.000000   0.000000
    6  NA 1  S    0.000466   0.000098  -0.003585   0.000000   0.000000
    7  NA 1  X    0.000000   0.000000   0.000000   0.000000   0.008570
    8  NA 1  Y    0.000000   0.000000   0.000000   0.008687   0.000000
    9  NA 1  Z    0.000692  -0.000181  -0.003660   0.000000   0.000000
   10  NA 1  S    0.000696   0.000152   0.003535   0.000000   0.000000
   11  NA 1  X    0.000000   0.000000   0.000000   0.000000  -0.001593
   12  NA 1  Y    0.000000   0.000000   0.000000  -0.001783   0.000000
   13  NA 1  Z    0.000271   0.000201   0.000536   0.000000   0.000000
   14  NA 1  S    0.000001  -0.000026  -0.000946   0.000000   0.000000
   15  NA 1  X    0.000000   0.000000   0.000000   0.000000   0.000376
   16  NA 1  Y    0.000000   0.000000   0.000000   0.000392   0.000000
   17  NA 1  Z   -0.000003  -0.000053   0.000055   0.000000   0.000000
   18  NA 1 XX   -0.000340   0.000045  -0.001278   0.000000   0.000000
   19  NA 1 YY   -0.000319   0.000051  -0.001191   0.000000   0.000000
   20  NA 1 ZZ   -0.000331  -0.000240  -0.003810   0.000000   0.000000
   21  NA 1 XY    0.000000   0.000000   0.000000   0.000000   0.000000
   22  NA 1 XZ    0.000000   0.000000   0.000000   0.000000   0.000381
   23  NA 1 YZ    0.000000   0.000000   0.000000   0.000433   0.000000
   24  O  2  S   -0.000077   0.994556  -0.000250   0.000000   0.000000
   25  O  2  S   -0.000332   0.020988   0.000509   0.000000   0.000000
   26  O  2  X    0.000000   0.000000   0.000000   0.000000   0.000968
   27  O  2  Y    0.000000   0.000000   0.000000   0.000780   0.000000
   28  O  2  Z    0.000067   0.001395  -0.000598   0.000000   0.000000
   29  O  2  S    0.001600   0.005585   0.000455   0.000000   0.000000
   30  O  2  X    0.000000   0.000000   0.000000   0.000000   0.000978
   31  O  2  Y    0.000000   0.000000   0.000000   0.001181   0.000000
   32  O  2  Z   -0.000471  -0.000671  -0.001045   0.000000   0.000000
   33  O  2  S   -0.000795  -0.000484   0.005062   0.000000   0.000000
   34  O  2  X    0.000000   0.000000   0.000000   0.000000  -0.000319
   35  O  2  Y    0.000000   0.000000   0.000000  -0.000011   0.000000
   36  O  2  Z    0.001651   0.000461  -0.002295   0.000000   0.000000
   37  O  2 XX   -0.000227  -0.004252  -0.000047   0.000000   0.000000
   38  O  2 YY   -0.000226  -0.004169   0.000194   0.000000   0.000000
   39  O  2 ZZ   -0.000246  -0.004176   0.000627   0.000000   0.000000
   40  O  2 XY    0.000000   0.000000   0.000000   0.000000   0.000000
   41  O  2 XZ    0.000000   0.000000   0.000000   0.000000  -0.000398
   42  O  2 YZ    0.000000   0.000000   0.000000  -0.000367   0.000000
   43  H  3  S    0.000030   0.000150  -0.000108  -0.000190   0.000000
   44  H  3  S   -0.000376  -0.000406  -0.000558   0.000589   0.000000
   45  H  3  S   -0.000392  -0.000023  -0.000353  -0.000368   0.000000
   46  H  3  X    0.000000   0.000000   0.000000   0.000000   0.000011
   47  H  3  Y    0.000005  -0.000235  -0.000045  -0.000098   0.000000
   48  H  3  Z   -0.000034   0.000189   0.000141  -0.000034   0.000000
   49  H  4  S    0.000030   0.000150  -0.000108   0.000190   0.000000
   50  H  4  S   -0.000376  -0.000406  -0.000558  -0.000589   0.000000
   51  H  4  S   -0.000392  -0.000023  -0.000353   0.000368   0.000000
   52  H  4  X    0.000000   0.000000   0.000000   0.000000   0.000011
   53  H  4  Y   -0.000005   0.000235   0.000045  -0.000098   0.000000
   54  H  4  Z   -0.000034   0.000189   0.000141   0.000034   0.000000

                      6          7          8          9         10
                   -1.5002    -1.4112    -0.7819    -0.6457    -0.5622
                     A          A          A          A          A   
    1  NA 1  S    0.000492   0.001383   0.000000  -0.006490  -0.000000
    2  NA 1  S   -0.002080  -0.005406   0.000000   0.040072  -0.000000
    3  NA 1  X    0.000000  -0.000000   0.000000  -0.000000  -0.011022
    4  NA 1  Y    0.000000  -0.000000  -0.006405  -0.000000  -0.000000
    5  NA 1  Z    0.994346  -0.089475   0.000000   0.055457  -0.000000
    6  NA 1  S    0.000872   0.009932   0.000000   0.003808  -0.000000
    7  NA 1  X    0.000000  -0.000000   0.000000  -0.000000  -0.002789
    8  NA 1  Y    0.000000  -0.000000  -0.000161  -0.000000  -0.000000
    9  NA 1  Z    0.006171   0.005288   0.000000   0.016273  -0.000000
   10  NA 1  S    0.000184   0.000617   0.000000   0.003170  -0.000000
   11  NA 1  X    0.000000  -0.000000   0.000000  -0.000000   0.000419
   12  NA 1  Y    0.000000  -0.000000   0.000486  -0.000000  -0.000000
   13  NA 1  Z   -0.000198   0.001304   0.000000  -0.004769  -0.000000
   14  NA 1  S   -0.000047  -0.001442   0.000000  -0.001977  -0.000000
   15  NA 1  X    0.000000  -0.000000   0.000000  -0.000000   0.000150
   16  NA 1  Y    0.000000  -0.000000  -0.001340  -0.000000  -0.000000
   17  NA 1  Z   -0.000095  -0.001406   0.000000   0.000986  -0.000000
   18  NA 1 XX    0.000132  -0.000520   0.000000   0.001761  -0.000000
   19  NA 1 YY    0.000278  -0.000192   0.000000   0.001458  -0.000000
   20  NA 1 ZZ   -0.001668   0.000086   0.000000   0.008391  -0.000000
   21  NA 1 XY    0.000000  -0.000000   0.000000  -0.000000  -0.000000
   22  NA 1 XZ    0.000000  -0.000000   0.000000  -0.000000  -0.001089
   23  NA 1 YZ    0.000000  -0.000000  -0.001698  -0.000000  -0.000000
   24  O  2  S   -0.017465  -0.211701   0.000000   0.062261  -0.000000
   25  O  2  S    0.038240   0.472244   0.000000  -0.148795  -0.000000
   26  O  2  X    0.000000  -0.000000   0.000000  -0.000000   0.637662
   27  O  2  Y    0.000000  -0.000000   0.511347  -0.000000  -0.000000
   28  O  2  Z   -0.001467   0.080874   0.000000   0.560860  -0.000000
   29  O  2  S    0.037362   0.435156   0.000000  -0.250499  -0.000000
   30  O  2  X    0.000000  -0.000000   0.000000  -0.000000   0.454504
   31  O  2  Y    0.000000  -0.000000   0.287882  -0.000000  -0.000000
   32  O  2  Z   -0.004451   0.023268   0.000000   0.384952  -0.000000
   33  O  2  S    0.001063   0.005146   0.000000  -0.069872  -0.000000
   34  O  2  X    0.000000  -0.000000   0.000000  -0.000000   0.082931
   35  O  2  Y    0.000000  -0.000000   0.002279  -0.000000  -0.000000
   36  O  2  Z    0.001884   0.015616   0.000000   0.064306  -0.000000
   37  O  2 XX   -0.000324  -0.000765   0.000000  -0.011960  -0.000000
   38  O  2 YY    0.000488   0.005661   0.000000  -0.005001  -0.000000
   39  O  2 ZZ    0.002282   0.008198   0.000000   0.020948  -0.000000
   40  O  2 XY    0.000000  -0.000000   0.000000  -0.000000  -0.000000
   41  O  2 XZ    0.000000  -0.000000   0.000000  -0.000000   0.021133
   42  O  2 YZ    0.000000  -0.000000   0.029743  -0.000000  -0.000000
   43  H  3  S    0.009443   0.145408  -0.239106   0.140298  -0.000000
   44  H  3  S   -0.001102  -0.004283  -0.098025   0.068432  -0.000000
   45  H  3  S   -0.000084   0.002072  -0.014850   0.003058  -0.000000
   46  H  3  X    0.000000  -0.000000   0.000000  -0.000000   0.021404
   47  H  3  Y    0.001293   0.021689  -0.012732   0.016598  -0.000000
   48  H  3  Z   -0.000787  -0.013070   0.019008   0.004258  -0.000000
   49  H  4  S    0.009443   0.145408   0.239106   0.140298  -0.000000
   50  H  4  S   -0.001102  -0.004283   0.098025   0.068432  -0.000000
   51  H  4  S   -0.000084   0.002072   0.014850   0.003058  -0.000000
   52  H  4  X    0.000000  -0.000000   0.000000  -0.000000   0.021404
   53  H  4  Y   -0.001293  -0.021689  -0.012732  -0.016598  -0.000000
   54  H  4  Z   -0.000787  -0.013070  -0.019008   0.004258  -0.000000

                     11         12         13         14         15
                    0.0033     0.0176     0.0191     0.0208     0.0504
                     A          A          A          A          A   
    1  NA 1  S    0.006419   0.000000  -0.000000  -0.005788  -0.014976
    2  NA 1  S   -0.019683   0.000000  -0.000000   0.026189   0.149180
    3  NA 1  X   -0.000000   0.000000  -0.011507  -0.000000   0.000000
    4  NA 1  Y   -0.000000  -0.012561  -0.000000  -0.000000   0.000000
    5  NA 1  Z   -0.005007   0.000000  -0.000000  -0.012035   0.003677
    6  NA 1  S    0.303887   0.000000  -0.000000  -0.188919   0.579221
    7  NA 1  X   -0.000000   0.000000   0.056619  -0.000000   0.000000
    8  NA 1  Y   -0.000000   0.061587  -0.000000  -0.000000   0.000000
    9  NA 1  Z    0.019649   0.000000  -0.000000   0.058213  -0.092516
   10  NA 1  S   -0.578393   0.000000  -0.000000   0.158189  -1.282784
   11  NA 1  X   -0.000000   0.000000  -0.268482  -0.000000   0.000000
   12  NA 1  Y   -0.000000  -0.283495  -0.000000  -0.000000   0.000000
   13  NA 1  Z   -0.168598   0.000000  -0.000000  -0.363351   0.086327
   14  NA 1  S    0.981837   0.000000  -0.000000  -0.736249   1.336123
   15  NA 1  X   -0.000000   0.000000   1.142575  -0.000000   0.000000
   16  NA 1  Y   -0.000000   1.107400  -0.000000  -0.000000   0.000000
   17  NA 1  Z    0.564315   0.000000  -0.000000   0.934442   0.482375
   18  NA 1 XX   -0.044391   0.000000  -0.000000   0.030815  -0.113765
   19  NA 1 YY   -0.043214   0.000000  -0.000000   0.029441  -0.116527
   20  NA 1 ZZ   -0.048472   0.000000  -0.000000   0.033549  -0.147435
   21  NA 1 XY   -0.000000   0.000000  -0.000000  -0.000000   0.000000
   22  NA 1 XZ   -0.000000   0.000000  -0.002506  -0.000000   0.000000
   23  NA 1 YZ   -0.000000   0.000313  -0.000000  -0.000000   0.000000
   24  O  2  S    0.020090   0.000000  -0.000000  -0.000849  -0.029466
   25  O  2  S   -0.045086   0.000000  -0.000000   0.004664   0.104268
   26  O  2  X   -0.000000   0.000000  -0.018259  -0.000000   0.000000
   27  O  2  Y   -0.000000  -0.023470  -0.000000  -0.000000   0.000000
   28  O  2  Z   -0.036113   0.000000  -0.000000  -0.020386   0.047658
   29  O  2  S   -0.130694   0.000000  -0.000000  -0.002614   0.072448
   30  O  2  X   -0.000000   0.000000  -0.021966  -0.000000   0.000000
   31  O  2  Y   -0.000000  -0.020747  -0.000000  -0.000000   0.000000
   32  O  2  Z   -0.042048   0.000000  -0.000000  -0.010036   0.065188
   33  O  2  S   -0.222490   0.000000  -0.000000   0.001906   1.092172
   34  O  2  X   -0.000000   0.000000   0.015434  -0.000000   0.000000
   35  O  2  Y   -0.000000  -0.035253  -0.000000  -0.000000   0.000000
   36  O  2  Z   -0.047413   0.000000  -0.000000  -0.024709   0.058289
   37  O  2 XX    0.003270   0.000000  -0.000000   0.001243   0.007783
   38  O  2 YY    0.002912   0.000000  -0.000000   0.001413   0.007634
   39  O  2 ZZ    0.001417   0.000000  -0.000000   0.000031   0.012600
   40  O  2 XY   -0.000000   0.000000  -0.000000  -0.000000   0.000000
   41  O  2 XZ   -0.000000   0.000000  -0.000598  -0.000000   0.000000
   42  O  2 YZ   -0.000000  -0.000932  -0.000000  -0.000000   0.000000
   43  H  3  S    0.005173   0.003774  -0.000000  -0.002875  -0.012440
   44  H  3  S    0.088455  -0.010112  -0.000000   0.002858  -0.205224
   45  H  3  S    0.179902  -0.240865  -0.000000   0.099278  -0.867118
   46  H  3  X   -0.000000   0.000000  -0.000037  -0.000000   0.000000
   47  H  3  Y   -0.003850   0.001202  -0.000000  -0.000963   0.006032
   48  H  3  Z    0.002436  -0.000932  -0.000000   0.000400  -0.003475
   49  H  4  S    0.005173  -0.003774  -0.000000  -0.002875  -0.012440
   50  H  4  S    0.088455   0.010112  -0.000000   0.002858  -0.205224
   51  H  4  S    0.179902   0.240865  -0.000000   0.099278  -0.867118
   52  H  4  X   -0.000000   0.000000  -0.000037  -0.000000   0.000000
   53  H  4  Y    0.003850   0.001202  -0.000000   0.000963  -0.006032
   54  H  4  Z    0.002436   0.000932  -0.000000   0.000400  -0.003475

                     16         17         18         19         20
                    0.0668     0.0689     0.0818     0.0853     0.0945
                     A          A          A          A          A   
    1  NA 1  S    0.016503   0.000000   0.000000  -0.000000  -0.000057
    2  NA 1  S   -0.171255   0.000000   0.000000  -0.000000  -0.040907
    3  NA 1  X    0.000000   0.000000  -0.047246  -0.000000   0.000000
    4  NA 1  Y    0.000000  -0.025133   0.000000   0.044066   0.000000
    5  NA 1  Z    0.025405   0.000000   0.000000  -0.000000  -0.025878
    6  NA 1  S   -0.726504   0.000000   0.000000  -0.000000  -0.441624
    7  NA 1  X    0.000000   0.000000  -0.141441  -0.000000   0.000000
    8  NA 1  Y    0.000000  -0.025751   0.000000   0.148371   0.000000
    9  NA 1  Z    0.111170   0.000000   0.000000  -0.000000  -0.143522
   10  NA 1  S    2.312424   0.000000   0.000000  -0.000000   1.393381
   11  NA 1  X    0.000000   0.000000   1.440293  -0.000000   0.000000
   12  NA 1  Y    0.000000   0.441578   0.000000  -1.514083   0.000000
   13  NA 1  Z    0.141008   0.000000   0.000000  -0.000000   2.154243
   14  NA 1  S   -0.372295   0.000000   0.000000  -0.000000   0.124412
   15  NA 1  X    0.000000   0.000000  -0.710629  -0.000000   0.000000
   16  NA 1  Y    0.000000  -0.665923   0.000000   0.397739   0.000000
   17  NA 1  Z    0.633968   0.000000   0.000000  -0.000000  -0.378183
   18  NA 1 XX    0.149288   0.000000   0.000000  -0.000000   0.054005
   19  NA 1 YY    0.153020   0.000000   0.000000  -0.000000   0.057321
   20  NA 1 ZZ    0.151586   0.000000   0.000000  -0.000000   0.056137
   21  NA 1 XY    0.000000   0.000000   0.000000  -0.000000   0.000000
   22  NA 1 XZ    0.000000   0.000000   0.005339  -0.000000   0.000000
   23  NA 1 YZ    0.000000   0.026090   0.000000   0.011450   0.000000
   24  O  2  S   -0.005090   0.000000   0.000000  -0.000000   0.011916
   25  O  2  S    0.028502   0.000000   0.000000  -0.000000  -0.025256
   26  O  2  X    0.000000   0.000000  -0.057255  -0.000000   0.000000
   27  O  2  Y    0.000000  -0.099455   0.000000  -0.033744   0.000000
   28  O  2  Z    0.084931   0.000000   0.000000  -0.000000   0.032149
   29  O  2  S   -0.006210   0.000000   0.000000  -0.000000  -0.093997
   30  O  2  X    0.000000   0.000000  -0.046232  -0.000000   0.000000
   31  O  2  Y    0.000000  -0.048406   0.000000  -0.012523   0.000000
   32  O  2  Z    0.075411   0.000000   0.000000  -0.000000  -0.014631
   33  O  2  S    0.700883   0.000000   0.000000  -0.000000   0.121667
   34  O  2  X    0.000000   0.000000  -0.065039  -0.000000   0.000000
   35  O  2  Y    0.000000  -0.503529   0.000000  -0.370523   0.000000
   36  O  2  Z    0.350499   0.000000   0.000000  -0.000000   0.192202
   37  O  2 XX    0.004200   0.000000   0.000000  -0.000000   0.003050
   38  O  2 YY    0.003167   0.000000   0.000000  -0.000000  -0.000000
   39  O  2 ZZ    0.007123   0.000000   0.000000  -0.000000  -0.001139
   40  O  2 XY    0.000000   0.000000   0.000000  -0.000000   0.000000
   41  O  2 XZ    0.000000   0.000000  -0.003730  -0.000000   0.000000
   42  O  2 YZ    0.000000   0.000371   0.000000   0.005768   0.000000
   43  H  3  S    0.003289   0.017837   0.000000  -0.005344   0.011377
   44  H  3  S   -0.158683  -0.127973   0.000000  -0.132964   0.002621
   45  H  3  S   -1.061742  -2.278513   0.000000  -1.983354  -0.985079
   46  H  3  X    0.000000   0.000000  -0.001180  -0.000000   0.000000
   47  H  3  Y    0.004567   0.006648   0.000000   0.002627   0.001181
   48  H  3  Z   -0.002994  -0.005885   0.000000  -0.003912  -0.001809
   49  H  4  S    0.003289  -0.017837   0.000000   0.005344   0.011377
   50  H  4  S   -0.158683   0.127973   0.000000   0.132964   0.002621
   51  H  4  S   -1.061742   2.278513   0.000000   1.983354  -0.985079
   52  H  4  X    0.000000   0.000000  -0.001180  -0.000000   0.000000
   53  H  4  Y   -0.004567   0.006648   0.000000   0.002627  -0.001181
   54  H  4  Z   -0.002994   0.005885   0.000000   0.003912  -0.001809

                     21         22         23         24         25
                    0.2010     0.2481     0.2497     0.2605     0.2678
                     A          A          A          A          A   
    1  NA 1  S    0.038949   0.000000  -0.000000   0.000000  -0.003071
    2  NA 1  S    0.055241   0.000000  -0.000000   0.000000   0.111532
    3  NA 1  X   -0.000000   0.000000   0.031439  -0.217746   0.000000
[...]
   10. BD ( 1) O  2- H  4       0.99927    -0.99982  11(r)
 ------ non-Lewis ----------------------------------
   12. BD*( 1) O  2- H  3       0.00003     0.80716
   13. BD*( 1) O  2- H  4       0.00003     0.80716
   31. RY ( 1) O  2             0.00001     0.85203
   32. RY ( 2) O  2             0.00000     2.00610
   33. RY ( 3) O  2             0.00000     2.00304
   34. RY ( 4) O  2             0.00000     2.25072
   35. RY ( 5) O  2             0.00000     0.98730
   36. RY ( 6) O  2             0.00000     1.36210
   37. RY ( 7) O  2             0.00000     1.21330
   38. RY ( 8) O  2             0.00000     1.52138
   39. RY ( 9) O  2             0.00000     1.25550
   40. RY (10) O  2             0.00000     2.09863
   41. RY (11) O  2             0.00000     1.34441
   42. RY (12) O  2             0.00000     2.10452
   43. RY (13) O  2             0.00000     2.36805
   44. RY (14) O  2             0.00000     1.93981
   45. RY ( 1) H  3             0.00032     2.65551
   46. RY ( 2) H  3             0.00020     2.10563
   47. RY ( 3) H  3             0.00004     1.18565
   48. RY ( 4) H  3             0.00000     1.11743
   49. RY ( 5) H  3             0.00000     2.86221
   50. RY ( 1) H  4             0.00032     2.65551
   51. RY ( 2) H  4             0.00020     2.10563
   52. RY ( 3) H  4             0.00004     1.18565
   53. RY ( 4) H  4             0.00000     1.11743
   54. RY ( 5) H  4             0.00000     2.86221
          -------------------------------
                 Total Lewis    4.99245  ( 99.9764%)
           Valence non-Lewis    0.00006  (  0.0012%)
           Rydberg non-Lewis    0.00112  (  0.0225%)
          -------------------------------
               Total unit  2    4.99363  (100.0000%)
              Charge unit  2    0.00637

 $CHOOSE
  ALPHA
   LONE 1 1 2 2 END
   BOND S 2 3 S 2 4 END
  END
  BETA
   LONE 2 2 END
   BOND S 2 3 S 2 4 END
  END
 $END

 NBO analysis completed in 0.10 CPU seconds (0 wall seconds)
 Maximum scratch memory used by NBO was 403751 words (3.08 MB)

  ---------- Alpha spin NBO deletions ----------

 NEDA: Natural Energy Decomposition Analysis
 Deletion of the NBO Fock matrix elements between orbitals:
    1   2   3   4   5   7  14  15  16  17  18  19  20  21  22  23  24  25  26  27
   28  29  30
 and orbitals:
    6   8   9  10  11  12  13  31  32  33  34  35  36  37  38  39  40  41  42  43
   44  45  46  47  48  49  50  51  52  53  54

 Orbital occupancies:

       Orbital                         No deletions  This deletion    Change
 ------------------------------------------------------------------------------
    1. CR ( 1)Na  1                      1.00000        1.00000       0.00000
    2. CR ( 2)Na  1                      1.00000        1.00000       0.00000
    3. CR ( 3)Na  1                      0.99999        0.99999       0.00000
    4. CR ( 4)Na  1                      0.99999        0.99999       0.00000
    5. CR ( 5)Na  1                      0.99999        1.00000       0.00000
    6. CR ( 1) O  2                      1.00000        1.00000       0.00000
    7. LP ( 1)Na  1                      0.97965        0.99686       0.01721
    8. LP ( 1) O  2                      0.99948        0.99960       0.00011
    9. LP ( 2) O  2                      0.99930        0.99936       0.00006
   10. BD ( 1) O  2- H  3                0.99982        0.99990       0.00007
   11. BD ( 1) O  2- H  4                0.99982        0.99990       0.00007
   12. BD*( 1) O  2- H  3                0.00029        0.00002      -0.00027
   13. BD*( 1) O  2- H  4                0.00029        0.00002      -0.00027
   14. RY ( 1)Na  1                      0.00024        0.00273       0.00249
   15. RY ( 2)Na  1                      0.00007        0.00000      -0.00006
   16. RY ( 3)Na  1                      0.00005        0.00003      -0.00002
   17. RY ( 4)Na  1                      0.00005        0.00000      -0.00004
   18. RY ( 5)Na  1                      0.00000        0.00000       0.00000
   19. RY ( 6)Na  1                      0.00000        0.00000       0.00000
   20. RY ( 7)Na  1                      0.00000        0.00009       0.00009
   21. RY ( 8)Na  1                      0.00000        0.00000       0.00000
   22. RY ( 9)Na  1                      0.00000        0.00019       0.00019
   23. RY (10)Na  1                      0.00000        0.00000       0.00000
   24. RY (11)Na  1                      0.00000        0.00000       0.00000
   25. RY (12)Na  1                      0.00000        0.00002       0.00002
   26. RY (13)Na  1                      0.00000        0.00003       0.00003
   27. RY (14)Na  1                      0.00000        0.00005       0.00005
   28. RY (15)Na  1                      0.00000        0.00000       0.00000
   29. RY (16)Na  1                      0.00000        0.00000       0.00000
   30. RY (17)Na  1                      0.00000        0.00000       0.00000
   31. RY ( 1) O  2                      0.01978        0.00007      -0.01971
   32. RY ( 2) O  2                      0.00000        0.00000       0.00000
   33. RY ( 3) O  2                      0.00000        0.00000       0.00000
   34. RY ( 4) O  2                      0.00000        0.00000       0.00000
   35. RY ( 5) O  2                      0.00000        0.00000       0.00000
   36. RY ( 6) O  2                      0.00000        0.00000       0.00000
   37. RY ( 7) O  2                      0.00000        0.00000       0.00000
   38. RY ( 8) O  2                      0.00000        0.00000       0.00000
   39. RY ( 9) O  2                      0.00000        0.00000       0.00000
   40. RY (10) O  2                      0.00000        0.00000       0.00000
   41. RY (11) O  2                      0.00000        0.00000       0.00000
   42. RY (12) O  2                      0.00000        0.00000       0.00000
   43. RY (13) O  2                      0.00000        0.00000       0.00000
   44. RY (14) O  2                      0.00000        0.00000       0.00000
   45. RY ( 1) H  3                      0.00032        0.00032       0.00000
   46. RY ( 2) H  3                      0.00022        0.00021      -0.00001
   47. RY ( 3) H  3                      0.00005        0.00004      -0.00001
   48. RY ( 4) H  3                      0.00000        0.00000       0.00000
   49. RY ( 5) H  3                      0.00000        0.00000       0.00000
   50. RY ( 1) H  4                      0.00032        0.00032       0.00000
   51. RY ( 2) H  4                      0.00022        0.00021      -0.00001
   52. RY ( 3) H  4                      0.00005        0.00004      -0.00001
   53. RY ( 4) H  4                      0.00000        0.00000       0.00000
   54. RY ( 5) H  4                      0.00000        0.00000       0.00000

  ---------- Beta spin NBO deletions ----------

 NEDA: Natural Energy Decomposition Analysis
 Deletion of the NBO Fock matrix elements between orbitals:
    1   2   3   4   5  11  14  15  16  17  18  19  20  21  22  23  24  25  26  27
   28  29  30
 and orbitals:
    6   7   8   9  10  12  13  31  32  33  34  35  36  37  38  39  40  41  42  43
   44  45  46  47  48  49  50  51  52  53  54

 Orbital occupancies:

       Orbital                         No deletions  This deletion    Change
 ------------------------------------------------------------------------------
    1. CR ( 1)Na  1                      1.00000        1.00000       0.00000
    2. CR ( 2)Na  1                      1.00000        1.00000       0.00000
    3. CR ( 3)Na  1                      1.00000        1.00000       0.00000
    4. CR ( 4)Na  1                      1.00000        1.00000       0.00000
    5. CR ( 5)Na  1                      0.99999        1.00000       0.00001
    6. CR ( 1) O  2                      1.00000        1.00000       0.00000
    7. LP ( 1) O  2                      0.99934        0.99936       0.00002
    8. LP ( 2) O  2                      0.99456        0.99962       0.00506
    9. BD ( 1) O  2- H  3                0.99927        0.99990       0.00063
   10. BD ( 1) O  2- H  4                0.99927        0.99990       0.00063
   11. LV ( 1)Na  1                      0.00624        0.00000      -0.00624
   12. BD*( 1) O  2- H  3                0.00003        0.00004       0.00001
   13. BD*( 1) O  2- H  4                0.00003        0.00004       0.00001
   14. RY ( 1)Na  1                      0.00007        0.00000      -0.00007
   15. RY ( 2)Na  1                      0.00005        0.00000      -0.00005
   16. RY ( 3)Na  1                      0.00002        0.00000      -0.00002
   17. RY ( 4)Na  1                      0.00000        0.00000       0.00000
   18. RY ( 5)Na  1                      0.00000        0.00000       0.00000
   19. RY ( 6)Na  1                      0.00000        0.00000       0.00000
   20. RY ( 7)Na  1                      0.00000        0.00000       0.00000
   21. RY ( 8)Na  1                      0.00000        0.00000       0.00000
   22. RY ( 9)Na  1                      0.00000        0.00000       0.00000
   23. RY (10)Na  1                      0.00000        0.00000       0.00000
   24. RY (11)Na  1                      0.00000        0.00000       0.00000
   25. RY (12)Na  1                      0.00000        0.00000       0.00000
   26. RY (13)Na  1                      0.00000        0.00000       0.00000
   27. RY (14)Na  1                      0.00000        0.00000       0.00000
   28. RY (15)Na  1                      0.00000        0.00000       0.00000
   29. RY (16)Na  1                      0.00000        0.00000       0.00000
   30. RY (17)Na  1                      0.00000        0.00000       0.00000
   31. RY ( 1) O  2                      0.00001        0.00000       0.00000
   32. RY ( 2) O  2                      0.00000        0.00000       0.00000
   33. RY ( 3) O  2                      0.00000        0.00000       0.00000
   34. RY ( 4) O  2                      0.00000        0.00000       0.00000
   35. RY ( 5) O  2                      0.00000        0.00000       0.00000
   36. RY ( 6) O  2                      0.00000        0.00000       0.00000
   37. RY ( 7) O  2                      0.00000        0.00000       0.00000
   38. RY ( 8) O  2                      0.00000        0.00000       0.00000
   39. RY ( 9) O  2                      0.00000        0.00000       0.00000
   40. RY (10) O  2                      0.00000        0.00000       0.00000
   41. RY (11) O  2                      0.00000        0.00000       0.00000
   42. RY (12) O  2                      0.00000        0.00000       0.00000
   43. RY (13) O  2                      0.00000        0.00000       0.00000
   44. RY (14) O  2                      0.00000        0.00000       0.00000
   45. RY ( 1) H  3                      0.00032        0.00032       0.00000
   46. RY ( 2) H  3                      0.00020        0.00020       0.00000
   47. RY ( 3) H  3                      0.00004        0.00005       0.00001
   48. RY ( 4) H  3                      0.00000        0.00000       0.00000
   49. RY ( 5) H  3                      0.00000        0.00000       0.00000
   50. RY ( 1) H  4                      0.00032        0.00032       0.00000
   51. RY ( 2) H  4                      0.00020        0.00020       0.00000
   52. RY ( 3) H  4                      0.00004        0.00005       0.00001
   53. RY ( 4) H  4                      0.00000        0.00000       0.00000
   54. RY ( 5) H  4                      0.00000        0.00000       0.00000

 NEXT STEP:  Perform one SCF cycle to evaluate the energy of the new density
             matrix constructed from the deleted NBO Fock matrix.

 ------------------------------------------------------------------------------

          ---------------------------
                  UHF SCF CALCULATION
          ---------------------------
     DENSITY MATRIX CONV=  1.00E-05

 ITER EX      TOTAL ENERGY        E CHANGE  DENSITY CHANGE    ORB. GRAD 
   1  0     -237.8655827720  -237.8655827720   0.158324958   0.000000000

 SCF IS UNCONVERGED, TOO MANY ITERATIONS
     TIME TO FORM FOCK OPERATORS=       0.0 SECONDS (       0.0 SEC/ITER)
     TIME TO SOLVE SCF EQUATIONS=       0.0 SECONDS (       0.0 SEC/ITER)

 FINAL UHF ENERGY IS        0.0000000000 AFTER   1 ITERATIONS

          --------------------
          SPIN SZ   =    0.500
          S-SQUARED =    0.750
          --------------------
 ...... END OF UHF CALCULATION ......
 STEP CPU TIME =     0.18 TOTAL CPU TIME =          0.4 (      0.0 MIN)
 TOTAL WALL CLOCK TIME=          0.4 SECONDS, CPU UTILIZATION IS   105.41%

 ------------------------------------------------------------------------------
   Energy of deletion :       -237.865582772
     Total SCF energy :       -237.881533592
                          -------------------
        Energy change :          0.015951 a.u.,          10.009 kcal/mol
 ------------------------------------------------------------------------------

 --------------
  Fragment  1:
 --------------

 ...... END OF ONE-ELECTRON INTEGRALS ......
 STEP CPU TIME =     0.02 TOTAL CPU TIME =          0.4 (      0.0 MIN)
 TOTAL WALL CLOCK TIME=          0.4 SECONDS, CPU UTILIZATION IS   105.13%

          ---------------------------
                  UHF SCF CALCULATION
          ---------------------------
     DENSITY MATRIX CONV=  1.00E-05

 ITER EX      TOTAL ENERGY        E CHANGE  DENSITY CHANGE    ORB. GRAD 
   1  0     -161.8027548884  -161.8027548884   0.066769835   0.000000000
          ---------------START SECOND ORDER SCF---------------
   2  1     -161.8400571217    -0.0373022332   0.023447006   0.007692391
   3  2     -161.8410992049    -0.0010420832   0.022358003   0.003324920
   4  3     -161.8414427761    -0.0003435712   0.005726018   0.001306763
   5  4     -161.8414799678    -0.0000371918   0.002949683   0.000666011
   6  5     -161.8414910227    -0.0000110548   0.001110388   0.000208603
   7  6     -161.8414915962    -0.0000005736   0.000919901   0.000076802
   8  7     -161.8414916823    -0.0000000861   0.000189539   0.000014234
   9  8     -161.8414916852    -0.0000000029   0.000045930   0.000004754
  10  9     -161.8414916854    -0.0000000002   0.000006176   0.000000940
  11 10     -161.8414916854    -0.0000000000   0.000001550   0.000000262

          -----------------
          DENSITY CONVERGED
          -----------------
     TIME TO FORM FOCK OPERATORS=       0.1 SECONDS (       0.0 SEC/ITER)
     TIME TO SOLVE SCF EQUATIONS=       0.0 SECONDS (       0.0 SEC/ITER)

 FINAL UHF ENERGY IS     -161.8414916854 AFTER  11 ITERATIONS

          --------------------
          SPIN SZ   =    0.500
          S-SQUARED =    0.750
          --------------------
 ...... END OF UHF CALCULATION ......
 STEP CPU TIME =     0.11 TOTAL CPU TIME =          0.5 (      0.0 MIN)
 TOTAL WALL CLOCK TIME=          0.5 SECONDS, CPU UTILIZATION IS   104.00%
 ...... END OF ONE-ELECTRON INTEGRALS ......
 STEP CPU TIME =     0.00 TOTAL CPU TIME =          0.5 (      0.0 MIN)
 TOTAL WALL CLOCK TIME=          0.5 SECONDS, CPU UTILIZATION IS   104.00%

 Dipole (def):    0.0000(x),   0.0000(y),   1.1756(z);   1.1756(tot) Debye
 Dipole (rel):    0.0000(x),   0.0000(y),  -0.0035(z);   0.0035(tot) Debye
 Dipole (ind):    0.0000(x),   0.0000(y),   1.1791(z);   1.1791(tot) Debye

 --------------
  Fragment  2:
 --------------

 ...... END OF ONE-ELECTRON INTEGRALS ......
 STEP CPU TIME =     0.02 TOTAL CPU TIME =          0.5 (      0.0 MIN)
 TOTAL WALL CLOCK TIME=          0.5 SECONDS, CPU UTILIZATION IS   103.85%

          ---------------------------
                  UHF SCF CALCULATION
          ---------------------------
     DENSITY MATRIX CONV=  1.00E-05

 ITER EX      TOTAL ENERGY        E CHANGE  DENSITY CHANGE    ORB. GRAD 
   1  0      -75.9806679254   -75.9806679254   0.057450636   0.000000000
          ---------------START SECOND ORDER SCF---------------
   2  1      -76.0318708865    -0.0512029610   0.010120387   0.011074811
   3  2      -76.0323734791    -0.0005025926   0.003300404   0.002290987
   4  3      -76.0324146940    -0.0000412150   0.001021367   0.001178588
   5  4      -76.0324199276    -0.0000052336   0.000204479   0.000100833
   6  5      -76.0324200491    -0.0000001216   0.000183088   0.000045924
   7  6      -76.0324200852    -0.0000000361   0.000054013   0.000016493
   8  7      -76.0324200905    -0.0000000053   0.000041487   0.000010912
   9  8      -76.0324200925    -0.0000000020   0.000009705   0.000003382
  10  9      -76.0324200927    -0.0000000001   0.000002784   0.000001001

          -----------------
          DENSITY CONVERGED
          -----------------
     TIME TO FORM FOCK OPERATORS=       0.1 SECONDS (       0.0 SEC/ITER)
     TIME TO SOLVE SCF EQUATIONS=       0.0 SECONDS (       0.0 SEC/ITER)

 FINAL UHF ENERGY IS      -76.0324200927 AFTER  10 ITERATIONS

          --------------------
          SPIN SZ   =    0.000
          S-SQUARED =    0.000
          --------------------
 ...... END OF UHF CALCULATION ......
 STEP CPU TIME =     0.10 TOTAL CPU TIME =          0.6 (      0.0 MIN)
 TOTAL WALL CLOCK TIME=          0.6 SECONDS, CPU UTILIZATION IS   103.23%
 ...... END OF ONE-ELECTRON INTEGRALS ......
 STEP CPU TIME =     0.00 TOTAL CPU TIME =          0.6 (      0.0 MIN)
 TOTAL WALL CLOCK TIME=          0.6 SECONDS, CPU UTILIZATION IS   103.23%

 Dipole (def):    0.0000(x),   0.0000(y),   2.5168(z);   2.5168(tot) Debye
 Dipole (rel):    0.0000(x),   0.0000(y),   2.1090(z);   2.1090(tot) Debye
 Dipole (ind):    0.0000(x),   0.0000(y),   0.4078(z);   0.4078(tot) Debye


 Natural Energy Decomposition Analysis (Summary):

                                                            Component
                    Energy(wfn)        Energy(wfn)          (kcal/mol)
 ------------------------------------------------------------------------------
 H2ONa          -237.8815336(scf)  -237.8655828(loc)      CT =  -10.009
                                                          ES =  -24.115
                                                         POL =  -19.806
                                                          EX =   -7.635
 1. Na          -161.8027549(def)  -161.8414917(rel) DEF(SE) =   24.308(  1.349)
 2. H2O          -75.9806679(def)   -76.0324201(rel) DEF(SE) =   32.475(  8.778)
                                                              ---------
                                                           E =   -4.783


 Electrical (ES+POL+SE) :    -33.794
   Charge Transfer (CT) :    -10.009
       Core (EX+DEF-SE) :     39.020
                        ------------
  Total Interaction (E) :     -4.783

 ..... done with NBO analysis .....
 STEP CPU TIME =     0.04 TOTAL CPU TIME =          0.7 (      0.0 MIN)
 TOTAL WALL CLOCK TIME=          0.7 SECONDS, CPU UTILIZATION IS   101.49%
               580000  WORDS OF DYNAMIC MEMORY USED
 EXECUTION OF GAMESS TERMINATED NORMALLY Thu Apr 18 13:44:16 2019
 DDI: 263640 bytes (0.3 MB / 0 MWords) used by master data server.

 ----------------------------------------
 CPU timing information for all processes
 ========================================
 0: 0.463 + 0.66 = 0.529
 ----------------------------------------
Note: The following floating-point exceptions are signalling: IEEE_DENORMAL
 ddikick.x: exited gracefully.
unset echo
----- accounting info -----
Files used on the master node neutron were:
-rw-rw-r-- 1 ericg ericg  380442 Apr 18 13:44 /home/ericg/scr/b.11.3.2.dat
-rw-rw-r-- 1 ericg ericg     436 Apr 18 13:44 /home/ericg/scr/b.11.3.2.F05
-rw-rw-r-- 1 ericg ericg 5760512 Apr 18 13:44 /home/ericg/scr/b.11.3.2.F08
-rw-rw-r-- 1 ericg ericg 1897760 Apr 18 13:44 /home/ericg/scr/b.11.3.2.F10
ls: No match.
ls: No match.
ls: No match.
Thu Apr 18 13:44:19 EDT 2019
0.095u 0.020s 0:03.79 2.9%	0+0k 0+16io 0pf+0w
