----- GAMESS execution script 'rungms' -----
This job is running on host neutron
under operating system Linux at Thu Apr 18 14:29:24 EDT 2019
Available scratch disk space (Kbyte units) at beginning of the job is
Filesystem     1K-blocks      Used Available Use% Mounted on
/dev/sda2      236432240 131180896  93171576  59% /
GAMESS temporary binary files will be written to /home/ericg/scr
GAMESS supplementary output files will be written to /home/ericg/scr
Copying input file c4h2.inp to your run's scratch directory...
cp -i c4h2.inp /home/ericg/scr/c4h2.F05
unset echo
/opt/gamess/ddikick.x /opt/gamess/gamess.00.x c4h2 -ddi 1 1 neutron -scr /home/ericg/scr

 Distributed Data Interface kickoff program.
 Initiating 1 compute processes on 1 nodes to run the following command:
 /opt/gamess/gamess.00.x c4h2 

          ******************************************************
          *         GAMESS VERSION = 30 SEP 2018 (R3)         *
          *             FROM IOWA STATE UNIVERSITY             *
          * M.W.SCHMIDT, K.K.BALDRIDGE, J.A.BOATZ, S.T.ELBERT, *
          *   M.S.GORDON, J.H.JENSEN, S.KOSEKI, N.MATSUNAGA,   *
          *          K.A.NGUYEN, S.J.SU, T.L.WINDUS,           *
          *       TOGETHER WITH M.DUPUIS, J.A.MONTGOMERY       *
          *         J.COMPUT.CHEM.  14, 1347-1363(1993)        *
          **************** 64 BIT LINUX VERSION ****************

  SINCE 1993, STUDENTS AND POSTDOCS WORKING AT IOWA STATE UNIVERSITY
  AND ALSO IN THEIR VARIOUS JOBS AFTER LEAVING ISU HAVE MADE IMPORTANT
  CONTRIBUTIONS TO THE CODE:
     IVANA ADAMOVIC, CHRISTINE AIKENS, YURI ALEXEEV, POOJA ARORA,
     ANDREY ASADCHEV, ROB BELL, PRADIPTA BANDYOPADHYAY, JONATHAN BENTZ,
     BRETT BODE, KURT BRORSEN, CALEB CARLIN, GALINA CHABAN, WEI CHEN,
     CHEOL HO CHOI, PAUL DAY, ALBERT DEFUSCO, NUWAN DESILVA, TIM DUDLEY,
     DMITRI FEDOROV, ALEX FINDLATER, GRAHAM FLETCHER, MARK FREITAG,
     KURT GLAESEMANN, ANASTASIA GUNINA,
     DAN KEMP, GRANT MERRILL, NORIYUKI MINEZAWA, JONATHAN MULLIN,
     TAKESHI NAGATA, SEAN NEDD, HEATHER NETZLOFF, BOSILJKA NJEGIC, RYAN OLSON,
     MIKE PAK, BUU PHAM,
     SPENCER PRUITT, LUKE ROSKOP, JIM SHOEMAKER, LYUDMILA SLIPCHENKO,
     TONY SMITH, SAROM SOK LEANG, JIE SONG, TETSUYA TAKETSUGU, SIMON WEBB,
     PENG XU, SOOHAENG YOO, FEDERICO ZAHARIEV

  ADDITIONAL CODE HAS BEEN PROVIDED BY COLLABORATORS IN OTHER GROUPS:
     IOWA STATE UNIVERSITY:
          JOE IVANIC, AARON WEST, LAIMUTIS BYTAUTAS, KLAUS RUEDENBERG
     UNIVERSITY OF TOKYO: KIMIHIKO HIRAO, TAKAHITO NAKAJIMA,
          TAKAO TSUNEDA, MUNEAKI KAMIYA, SUSUMU YANAGISAWA,
          KIYOSHI YAGI, MAHITO CHIBA, SEIKEN TOKURA, NAOAKI KAWAKAMI
     UNIVERSITY OF AARHUS: FRANK JENSEN
     UNIVERSITY OF IOWA: VISVALDAS KAIRYS, HUI LI
     NATIONAL INST. OF STANDARDS AND TECHNOLOGY: WALT STEVENS, DAVID GARMER
     UNIVERSITY OF PISA: BENEDETTA MENNUCCI, JACOPO TOMASI
     UNIVERSITY OF MEMPHIS: HENRY KURTZ, PRAKASHAN KORAMBATH
     UNIVERSITY OF ALBERTA: TOBY ZENG, MARIUSZ KLOBUKOWSKI
     UNIVERSITY OF NEW ENGLAND: MARK SPACKMAN
     MIE UNIVERSITY: HIROAKI UMEDA
     NAT. INST. OF ADVANCED INDUSTRIAL SCIENCE AND TECHNOLOGY: KAZUO KITAURA
     MICHIGAN STATE UNIVERSITY:
          KAROL KOWALSKI, MARTA WLOCH, JEFFREY GOUR, JESSE LUTZ,
          WEI LI, JUN SHEN, J. EMILIANO DEUSTUA, PIOTR PIECUCH
     UNIVERSITY OF MINNESOTA:
          YINAN SHU
     UNIVERSITY OF SILESIA: MONIKA MUSIAL, STANISLAW KUCHARSKI
     FACULTES UNIVERSITAIRES NOTRE-DAME DE LA PAIX:
          OLIVIER QUINET, BENOIT CHAMPAGNE
     UNIVERSITY OF CALIFORNIA - SANTA BARBARA: BERNARD KIRTMAN
     INSTITUTE FOR MOLECULAR SCIENCE:
          KAZUYA ISHIMURA, MICHIO KATOUDA, AND SHIGERU NAGASE
     UNIVERSITY OF NOTRE DAME: ANNA POMOGAEVA, DAN CHIPMAN
     KYUSHU UNIVERSITY:
          HARUYUKI NAKANO,
          FENG LONG GU, JACEK KORCHOWIEC, MARCIN MAKOWSKI, AND YURIKO AOKI,
          HIROTOSHI MORI AND EISAKU MIYOSHI
     PENNSYLVANIA STATE UNIVERSITY:
          TZVETELIN IORDANOV, CHET SWALINA, JONATHAN SKONE,
          SHARON HAMMES-SCHIFFER
     WASEDA UNIVERSITY:
          MASATO KOBAYASHI, TOMOKO AKAMA, TSUGUKI TOUMA,
          TAKESHI YOSHIKAWA, YASUHIRO IKABATA, JUNJI SEINO,
          YUYA NAKAJIMA, HIROMI NAKAI
     NANJING UNIVERSITY: SHUHUA LI
     UNIVERSITY OF NEBRASKA:
          PEIFENG SU, DEJUN SI, NANDUN THELLAMUREGE, YALI WANG, HUI LI
     UNIVERSITY OF ZURICH: ROBERTO PEVERATI, KIM BALDRIDGE
     N. COPERNICUS UNIVERSITY AND JACKSON STATE UNIVERSITY:
          MARIA BARYSZ
     UNIVERSITY OF COPENHAGEN: Jimmy Kromann, CASPER STEINMANN
     TOKYO INSTITUTE OF TECHNOLOGY: HIROYA NAKATA
     NAGOYA UNIVERSITY: YOSHIO NISHIMOTO, STEPHAN IRLE
     MOSCOW STATE UNIVERSITY: VLADIMIR MIRONOV

 EXECUTION OF GAMESS BEGUN Thu Apr 18 14:29:24 2019

            ECHO OF THE FIRST FEW INPUT CARDS -
 INPUT CARD> $contrl  scftyp=rhf  runtyp=energy  ispher=1  $end                             
 INPUT CARD> $basis  gbasis=n311  ngauss=6  ndfunc=1  npfunc=1  diffsp=.t.  diffs=.t.  $end 
 INPUT CARD> $nbo  $end                                                                     
 INPUT CARD> $del  lewis  $end                                                              
 INPUT CARD> $data                                                                          
 INPUT CARD>Butadiyne...rhf/6-311++g**                                                      
 INPUT CARD>Dnh 4                                                                           
 INPUT CARD>                                                                                
 INPUT CARD>C    6.    0.000000    0.000000    0.693074                                     
 INPUT CARD>C    6.    0.000000    0.000000    1.878441                                     
 INPUT CARD>H    1.    0.000000    0.000000    2.933869                                     
 INPUT CARD> $end                                                                           
    1000000 WORDS OF MEMORY AVAILABLE

     BASIS OPTIONS
     -------------
     GBASIS=N311         IGAUSS=       6      POLAR=POPN311 
     NDFUNC=       1     NFFUNC=       0     DIFFSP=       T
     NPFUNC=       1      DIFFS=       T     BASNAM=        


     RUN TITLE
     ---------
 Butadiyne...rhf/6-311++g**                                                      

 THE POINT GROUP OF THE MOLECULE IS DNH     
 THE ORDER OF THE PRINCIPAL AXIS IS     4

 ATOM      ATOMIC                      COORDINATES (BOHR)
           CHARGE         X                   Y                   Z
 C           6.0     0.0000000000        0.0000000000       -1.3097199492
 C           6.0     0.0000000000        0.0000000000        1.3097199492
 C           6.0     0.0000000000        0.0000000000       -3.5497387741
 C           6.0     0.0000000000        0.0000000000        3.5497387741
 H           1.0     0.0000000000        0.0000000000       -5.5442084939
 H           1.0     0.0000000000        0.0000000000        5.5442084939

          INTERNUCLEAR DISTANCES (ANGS.)
          ------------------------------

                1 C          2 C          3 C          4 C          5 H     

   1 C       0.0000000    1.3861480 *  1.1853670 *  2.5715150 *  2.2407950 *
   2 C       1.3861480 *  0.0000000    2.5715150 *  1.1853670 *  3.6269430  
   3 C       1.1853670 *  2.5715150 *  0.0000000    3.7568820    1.0554280 *
   4 C       2.5715150 *  1.1853670 *  3.7568820    0.0000000    4.8123100  
   5 H       2.2407950 *  3.6269430    1.0554280 *  4.8123100    0.0000000  
   6 H       3.6269430    2.2407950 *  4.8123100    1.0554280 *  5.8677380  

                6 H     

   1 C       3.6269430  
   2 C       2.2407950 *
   3 C       4.8123100  
   4 C       1.0554280 *
   5 H       5.8677380  
   6 H       0.0000000  

  * ... LESS THAN  3.000


     ATOMIC BASIS SET
     ----------------
 THE CONTRACTED PRIMITIVE FUNCTIONS HAVE BEEN UNNORMALIZED
 THE CONTRACTED BASIS FUNCTIONS ARE NOW NORMALIZED TO UNITY

  SHELL TYPE  PRIMITIVE        EXPONENT          CONTRACTION COEFFICIENT(S)

 C         

      7   S       1          4563.2400000    0.001966650249
      7   S       2           682.0240000    0.015230601932
      7   S       3           154.9730000    0.076126909656
      7   S       4            44.4553000    0.260801033080
      7   S       5            13.0290000    0.616462078191
      7   S       6             1.8277300    0.221006028032

      8   L       7            20.9642000    0.114660080729    0.040248692673
      8   L       8             4.8033100    0.919999647749    0.237593956746
      8   L       9             1.4593300   -0.003030682134    0.815853851473

      9   L      10             0.4834560    1.000000000000    1.000000000000

     10   L      11             0.1455850    1.000000000000    1.000000000000

     11   L      12             0.0438000    1.000000000000    1.000000000000

     12   D      13             0.6260000    1.000000000000

 C         

     19   S      14          4563.2400000    0.001966650249
     19   S      15           682.0240000    0.015230601932
     19   S      16           154.9730000    0.076126909656
     19   S      17            44.4553000    0.260801033080
     19   S      18            13.0290000    0.616462078191
     19   S      19             1.8277300    0.221006028032

     20   L      20            20.9642000    0.114660080729    0.040248692673
     20   L      21             4.8033100    0.919999647749    0.237593956746
     20   L      22             1.4593300   -0.003030682134    0.815853851473

     21   L      23             0.4834560    1.000000000000    1.000000000000

     22   L      24             0.1455850    1.000000000000    1.000000000000

     23   L      25             0.0438000    1.000000000000    1.000000000000

     24   D      26             0.6260000    1.000000000000

 H         

     30   S      27            33.8650000    0.025493814541
     30   S      28             5.0947900    0.190373108582
     30   S      29             1.1587900    0.852161486043

     31   S      30             0.3258400    1.000000000000

     32   S      31             0.1027410    1.000000000000

     33   S      32             0.0360000    1.000000000000

     34   P      33             0.7500000    1.000000000000

 TOTAL NUMBER OF BASIS SET SHELLS             =   34
 NUMBER OF CARTESIAN GAUSSIAN BASIS FUNCTIONS =  106
 NOTE: THIS RUN WILL RESTRICT THE MO VARIATION SPACE TO SPHERICAL HARMONICS.
 THE NUMBER OF ORBITALS KEPT IN THE VARIATIONAL SPACE WILL BE PRINTED LATER.
 NUMBER OF ELECTRONS                          =   26
 CHARGE OF MOLECULE                           =    0
 SPIN MULTIPLICITY                            =    1
 NUMBER OF OCCUPIED ORBITALS (ALPHA)          =   13
 NUMBER OF OCCUPIED ORBITALS (BETA )          =   13
 TOTAL NUMBER OF ATOMS                        =    6
 THE NUCLEAR REPULSION ENERGY IS       77.7843168606

 THIS MOLECULE IS RECOGNIZED AS BEING LINEAR,
 ORBITAL LZ DEGENERACY TOLERANCE ETOLLZ= 1.00E-06

     $CONTRL OPTIONS
     ---------------
 SCFTYP=RHF          RUNTYP=ENERGY       EXETYP=RUN     
 MPLEVL=       0     CITYP =NONE         CCTYP =NONE         VBTYP =NONE    
 DFTTYP=NONE         TDDFT =NONE    
 MULT  =       1     ICHARG=       0     NZVAR =       0     COORD =UNIQUE  
 PP    =NONE         RELWFN=NONE         LOCAL =NONE         NUMGRD=       F
 ISPHER=       1     NOSYM =       0     MAXIT =      30     UNITS =ANGS    
 PLTORB=       F     MOLPLT=       F     AIMPAC=       F     FRIEND=        
 NPRINT=       7     IREST =       0     GEOM  =INPUT   
 NORMF =       0     NORMP =       0     ITOL  =      20     ICUT  =       9
 INTTYP=BEST         GRDTYP=BEST         QMTTOL= 1.0E-06

     $SYSTEM OPTIONS
     ---------------
  REPLICATED MEMORY=     1000000 WORDS (ON EVERY NODE).
 DISTRIBUTED MEMDDI=           0 MILLION WORDS IN AGGREGATE,
 MEMDDI DISTRIBUTED OVER   1 PROCESSORS IS           0 WORDS/PROCESSOR.
 TOTAL MEMORY REQUESTED ON EACH PROCESSOR=     1000000 WORDS.
 TIMLIM=      525600.00 MINUTES, OR     365.0 DAYS.
 PARALL= F  BALTYP=  DLB     KDIAG=    0  COREFL= F
 MXSEQ2=     300 MXSEQ3=     150  mem10=         0

          ----------------
          PROPERTIES INPUT
          ----------------

     MOMENTS            FIELD           POTENTIAL          DENSITY
 IEMOM =       1   IEFLD =       0   IEPOT =       0   IEDEN =       0
 WHERE =COMASS     WHERE =NUCLEI     WHERE =NUCLEI     WHERE =NUCLEI  
 OUTPUT=BOTH       OUTPUT=BOTH       OUTPUT=BOTH       OUTPUT=BOTH    
 IEMINT=       0   IEFINT=       0                     IEDINT=       0
                                                       MORB  =       0
          EXTRAPOLATION IN EFFECT
          DIIS IN EFFECT
 ORBITAL PRINTING OPTION: NPREO=     1   106     2     1

     -------------------------------
     INTEGRAL TRANSFORMATION OPTIONS
     -------------------------------
     NWORD  =            0
     CUTOFF = 1.0E-09     MPTRAN =       0
     DIRTRF =       F     AOINTS =DUP     

          ----------------------
          INTEGRAL INPUT OPTIONS
          ----------------------
 NOPK  =       1 NORDER=       0 SCHWRZ=       T

     ------------------------------------------
     THE POINT GROUP IS DNH, NAXIS= 4, ORDER=16
     ------------------------------------------

 -- VARIATIONAL SPACE WILL BE RESTRICTED TO PURE SPHERICAL HARMONICS ONLY --
 AFTER EXCLUDING CONTAMINANT COMBINATIONS FROM THE CARTESIAN GAUSSIAN BASIS
 SET, THE NUMBER OF SPHERICAL HARMONICS KEPT IN THE VARIATION SPACE IS  102

     DIMENSIONS OF THE SYMMETRY SUBSPACES ARE
 A1G =   25     A1U =    0     B1G =    2     B1U =    2     A2G =    0
 A2U =   25     B2G =    2     B2U =    2     EG  =   11     EU  =   11

 ..... DONE SETTING UP THE RUN .....
 STEP CPU TIME =     0.00 TOTAL CPU TIME =          0.0 (      0.0 MIN)
 TOTAL WALL CLOCK TIME=          0.0 SECONDS, CPU UTILIZATION IS     0.00%

          ********************
          1 ELECTRON INTEGRALS
          ********************
 ...... END OF ONE-ELECTRON INTEGRALS ......
 STEP CPU TIME =     0.00 TOTAL CPU TIME =          0.0 (      0.0 MIN)
 TOTAL WALL CLOCK TIME=          0.0 SECONDS, CPU UTILIZATION IS     0.00%

          -------------
          GUESS OPTIONS
          -------------
          GUESS =HUCKEL            NORB  =       0          NORDER=       0
          MIX   =       F          PRTMO =       F          PUNMO =       F
          TOLZ  = 1.0E-08          TOLE  = 1.0E-05
          SYMDEN=       F          PURIFY=       F

 INITIAL GUESS ORBITALS GENERATED BY HUCKEL   ROUTINE.
 HUCKEL GUESS REQUIRES     87982 WORDS.

 STATISTICS FOR GENERATION OF SYMMETRY ORBITAL -Q- MATRIX
 NUMBER OF CARTESIAN ATOMIC ORBITALS=        106
 NUMBER OF SPHERICAL CONTAMINANTS DROPPED=     4
 NUMBER OF LINEARLY DEPENDENT MOS DROPPED=     1
 TOTAL NUMBER OF MOS IN VARIATION SPACE=     101

 ...WARNING (SYMORB.SRC)...
 THE INPUT BASIS SET CONTAINS APPROXIMATE LINEAR DEPENDENCE.
 THE SMALLEST EIGENVALUE OF THE OVERLAP MATRIX IS   8.969793E-08
 THERE ARE    1 EIGENVALUES LESS THAN QMTTOL=  1.00E-06
 EIGENVECTORS BELOW -QMTTOL- ARE DROPPED FROM THE MO SPACE,
 IN ORDER TO ELIMINATE THE APPROXIMATE LINEAR DEPENDENCE.

 THIS WILL MOST LIKELY CHANGE THE ENERGY ON THE ORDER OF TENS OF MICROHARTREES,
 DEPENDING ON THE NUMBER OF ORBITALS REMOVED.  THE VALUE OF QMTTOL CAN BE 
 CHANGED IN $CONTRL: JOBS WITH EIGENVALUES BELOW 1.0E-07 PROBABLY WON'T
 CONVERGE.  EIGENVALUES BETWEEN 1.0E-07 AND 1.0E-06 MAY REQUIRE LOOSENING OF
 THE DENSITY CRITERION (CONV IN $SCF), MORE ACCURATE INTEGRAL EVALUATION
 (ICUT=11 IN $CONTRL), MORE ACCURATE DIRECT SCF FOCK MATRIX
 CONSTRUCTION (FDIFF=.FALSE. IN $SCF), OR CHANGING THE SCF CONVERGER
 (DIIS=.TRUE. IN $SCF).

                    * * * * * WARNING * * * * *
 POSSIBLE LINEAR DEPENDENCE PROBLEMS DETECTED, INPUT QMTTOL= 1.0E-06,
 WITH     1 OVERLAP EIGENVALUES LYING BETWEEN 1.0E-05 AND QMTTOL.
 IF YOU EXPERIENCE SCF CONVERGENCE DIFFICULTIES WITH THE DENSITY ALMOST BUT
 NOT QUITE CONVERGED, YOU MAY NEED TO LOOSEN -QMTTOL- BY A FACTOR 5 TO 10.

 SYMMETRIES FOR INITIAL GUESS ORBITALS FOLLOW.   BOTH SET(S).
    13 ORBITALS ARE OCCUPIED (    4 CORE ORBITALS).
     5=A1G      6=A2U      7=A1G      8=A2U      9=EU      10=EU      11=A1G 
    12=EG      13=EG      14=EU      15=EU      16=EG      17=EG      18=A2U 
    19=A1G     20=A1G     21=A1G     22=A1G     23=A1G 
 ...... END OF INITIAL ORBITAL SELECTION ......
 STEP CPU TIME =     0.02 TOTAL CPU TIME =          0.0 (      0.0 MIN)
 TOTAL WALL CLOCK TIME=          0.0 SECONDS, CPU UTILIZATION IS    66.67%

                    ----------------------
                    AO INTEGRAL TECHNOLOGY
                    ----------------------
     S,P,L SHELL ROTATED AXIS INTEGRALS, REPROGRAMMED BY
        KAZUYA ISHIMURA (IMS) AND JOSE SIERRA (SYNSTAR).
     S,P,D,L SHELL ROTATED AXIS INTEGRALS PROGRAMMED BY
        KAZUYA ISHIMURA (INSTITUTE FOR MOLECULAR SCIENCE).
     S,P,D,F,G SHELL TO TOTAL QUARTET ANGULAR MOMENTUM SUM 5,
        ERIC PROGRAM BY GRAHAM FLETCHER (ELORET AND NASA ADVANCED
        SUPERCOMPUTING DIVISION, AMES RESEARCH CENTER).
     S,P,D,F,G,L SHELL GENERAL RYS QUADRATURE PROGRAMMED BY
        MICHEL DUPUIS (PACIFIC NORTHWEST NATIONAL LABORATORY).

          --------------------
          2 ELECTRON INTEGRALS
          --------------------

 THE -PK- OPTION IS OFF, THE INTEGRALS ARE NOT IN SUPERMATRIX FORM.
 STORING   15000 INTEGRALS/RECORD ON DISK, USING 12 BYTES/INTEGRAL.
 TWO ELECTRON INTEGRAL EVALUATION REQUIRES   90991 WORDS OF MEMORY.
 SCHWARZ INEQUALITY OVERHEAD:      5606 INTEGRALS, T=        0.00
 II,JST,KST,LST =  1  1  1  1 NREC =         1 INTLOC =    1
 II,JST,KST,LST =  2  1  1  1 NREC =         1 INTLOC =    1
 II,JST,KST,LST =  3  1  1  1 NREC =         1 INTLOC =    1
 II,JST,KST,LST =  4  1  1  1 NREC =         1 INTLOC =    1
 II,JST,KST,LST =  5  1  1  1 NREC =         1 INTLOC =    1
 II,JST,KST,LST =  6  1  1  1 NREC =         1 INTLOC =    1
 II,JST,KST,LST =  7  1  1  1 NREC =         1 INTLOC =    1
 II,JST,KST,LST =  8  1  1  1 NREC =         1 INTLOC =    5
 II,JST,KST,LST =  9  1  1  1 NREC =         1 INTLOC =  300
 II,JST,KST,LST = 10  1  1  1 NREC =         1 INTLOC = 2375
 II,JST,KST,LST = 11  1  1  1 NREC =         1 INTLOC = 9254
 II,JST,KST,LST = 12  1  1  1 NREC =         2 INTLOC =10599
 II,JST,KST,LST = 13  1  1  1 NREC =         6 INTLOC = 4052
 II,JST,KST,LST = 14  1  1  1 NREC =         6 INTLOC = 4052
 II,JST,KST,LST = 15  1  1  1 NREC =         6 INTLOC = 4052
 II,JST,KST,LST = 16  1  1  1 NREC =         6 INTLOC = 4052
 II,JST,KST,LST = 17  1  1  1 NREC =         6 INTLOC = 4052
 II,JST,KST,LST = 18  1  1  1 NREC =         6 INTLOC = 4052
 II,JST,KST,LST = 19  1  1  1 NREC =         6 INTLOC = 4052
 II,JST,KST,LST = 20  1  1  1 NREC =         7 INTLOC = 3866
 II,JST,KST,LST = 21  1  1  1 NREC =        11 INTLOC =12817
 II,JST,KST,LST = 22  1  1  1 NREC =        19 INTLOC = 4911
 II,JST,KST,LST = 23  1  1  1 NREC =        30 INTLOC =14831
 II,JST,KST,LST = 24  1  1  1 NREC =        47 INTLOC = 5245
 II,JST,KST,LST = 25  1  1  1 NREC =        78 INTLOC = 9179
 II,JST,KST,LST = 26  1  1  1 NREC =        78 INTLOC = 9179
 II,JST,KST,LST = 27  1  1  1 NREC =        78 INTLOC = 9179
 II,JST,KST,LST = 28  1  1  1 NREC =        78 INTLOC = 9179
 II,JST,KST,LST = 29  1  1  1 NREC =        78 INTLOC = 9179
 II,JST,KST,LST = 30  1  1  1 NREC =        78 INTLOC = 9179
 II,JST,KST,LST = 31  1  1  1 NREC =        84 INTLOC = 1715
 II,JST,KST,LST = 32  1  1  1 NREC =        91 INTLOC = 9418
 II,JST,KST,LST = 33  1  1  1 NREC =       100 INTLOC =12932
 II,JST,KST,LST = 34  1  1  1 NREC =       110 INTLOC =13956
 SCHWARZ INEQUALITY TEST SKIPPED       13810 INTEGRAL BLOCKS.
 TOTAL NUMBER OF NONZERO TWO-ELECTRON INTEGRALS =             1959053
        131 INTEGRAL RECORDS WERE STORED ON DISK FILE  8.
  ...... END OF TWO-ELECTRON INTEGRALS .....
 STEP CPU TIME =     0.25 TOTAL CPU TIME =          0.3 (      0.0 MIN)
 TOTAL WALL CLOCK TIME=          0.3 SECONDS, CPU UTILIZATION IS    96.43%

          --------------------------
                 RHF SCF CALCULATION
          --------------------------

     NUCLEAR ENERGY =        77.7843168606
     MAXIT =   30     NPUNCH=    2
     EXTRAP=T  DAMP=F  SHIFT=F  RSTRCT=F  DIIS=T  DEM=F  SOSCF=F
     DENSITY MATRIX CONV=  1.00E-05
     MEMORY REQUIRED FOR RHF ITERS=    110801 WORDS.

 ITER EX DEM     TOTAL ENERGY        E CHANGE  DENSITY CHANGE    DIIS ERROR
   1  0  0     -152.1613369144  -152.1613369144  27.172240567   0.635434627
          * * *   INITIATING DIIS PROCEDURE   * * *
   2  1  0     -152.5171018004    -0.3557648860   0.725539050   0.060326081
   3  2  0     -152.5307297765    -0.0136279761   0.605023041   0.042133187
   4  3  0     -152.5368819137    -0.0061521372   0.601576988   0.011868020
   5  4  0     -152.5375835971    -0.0007016834   0.086479589   0.003645693
   6  5  0     -152.5376336730    -0.0000500759   0.051266347   0.000790477
   7  6  0     -152.5376355125    -0.0000018395   0.000878650   0.000070302
   8  7  0     -152.5376355415    -0.0000000290   0.000107597   0.000008127
   9  8  0     -152.5376355420    -0.0000000005   0.000070848   0.000001135
  10  9  0     -152.5376355420    -0.0000000000   0.000016505   0.000000169
  11 10  0     -152.5376355420    -0.0000000000   0.000001284   0.000000024

          -----------------
          DENSITY CONVERGED
          -----------------
     TIME TO FORM FOCK OPERATORS=       0.2 SECONDS (       0.0 SEC/ITER)
     TIME TO SOLVE SCF EQUATIONS=       0.1 SECONDS (       0.0 SEC/ITER)

 FINAL RHF ENERGY IS     -152.5376355420 AFTER  11 ITERATIONS

 LZ VALUE ANALYSIS FOR THE MOS
 ----------------------------------------
 MO     1 (    1) HAS LZ(WEIGHT)= 0.00(100.0%) 
 MO     2 (    2) HAS LZ(WEIGHT)= 0.00(100.0%) 
 MO     3 (    3) HAS LZ(WEIGHT)= 0.00(100.0%) 
 MO     4 (    4) HAS LZ(WEIGHT)= 0.00(100.0%) 
 MO     5 (    5) HAS LZ(WEIGHT)= 0.00(100.0%) 
 MO     6 (    6) HAS LZ(WEIGHT)= 0.00(100.0%) 
 MO     7 (    7) HAS LZ(WEIGHT)= 0.00(100.0%) 
 MO     8 (    8) HAS LZ(WEIGHT)= 0.00(100.0%) 
 MO     9 (    9) HAS LZ(WEIGHT)= 0.00(100.0%) 
 MO    10 (   10) HAS LZ(WEIGHT)=-1.00( 50.0%)  1.00( 50.0%) 
 MO    11 (   10) HAS LZ(WEIGHT)=-1.00( 50.0%)  1.00( 50.0%) 
 MO    12 (   11) HAS LZ(WEIGHT)=-1.00( 50.0%)  1.00( 50.0%) 
 MO    13 (   11) HAS LZ(WEIGHT)=-1.00( 50.0%)  1.00( 50.0%) 
 MO    14 (   12) HAS LZ(WEIGHT)= 0.00(100.0%) 
 MO    15 (   13) HAS LZ(WEIGHT)= 0.00(100.0%) 
 MO    16 (   14) HAS LZ(WEIGHT)=-1.00( 50.0%)  1.00( 50.0%) 
 MO    17 (   14) HAS LZ(WEIGHT)=-1.00( 50.0%)  1.00( 50.0%) 
 MO    18 (   15) HAS LZ(WEIGHT)= 0.00(100.0%) 
 MO    19 (   16) HAS LZ(WEIGHT)=-1.00( 50.0%)  1.00( 50.0%) 
 MO    20 (   16) HAS LZ(WEIGHT)=-1.00( 50.0%)  1.00( 50.0%) 
 MO    21 (   17) HAS LZ(WEIGHT)=-1.00( 50.0%)  1.00( 50.0%) 
 MO    22 (   17) HAS LZ(WEIGHT)=-1.00( 50.0%)  1.00( 50.0%) 
 MO    23 (   18) HAS LZ(WEIGHT)= 0.00(100.0%) 
 MO    24 (   19) HAS LZ(WEIGHT)= 0.00(100.0%) 
 MO    25 (   20) HAS LZ(WEIGHT)= 0.00(100.0%) 
 MO    26 (   21) HAS LZ(WEIGHT)= 0.00(100.0%) 
 MO    27 (   22) HAS LZ(WEIGHT)=-1.00( 50.0%)  1.00( 50.0%) 
 MO    28 (   22) HAS LZ(WEIGHT)=-1.00( 50.0%)  1.00( 50.0%) 
 MO    29 (   23) HAS LZ(WEIGHT)=-1.00( 50.0%)  1.00( 50.0%) 
 MO    30 (   23) HAS LZ(WEIGHT)=-1.00( 50.0%)  1.00( 50.0%) 
 MO    31 (   24) HAS LZ(WEIGHT)= 0.00(100.0%) 
 MO    32 (   25) HAS LZ(WEIGHT)= 0.00(100.0%) 
 MO    33 (   26) HAS LZ(WEIGHT)= 0.00(100.0%) 
 MO    34 (   27) HAS LZ(WEIGHT)=-1.00( 50.0%)  1.00( 50.0%) 
 MO    35 (   27) HAS LZ(WEIGHT)=-1.00( 50.0%)  1.00( 50.0%) 
 MO    36 (   28) HAS LZ(WEIGHT)= 0.00(100.0%) 
 MO    37 (   29) HAS LZ(WEIGHT)= 0.00(100.0%) 
 MO    38 (   30) HAS LZ(WEIGHT)= 0.00(100.0%) 
 MO    39 (   31) HAS LZ(WEIGHT)= 0.00(100.0%) 
 MO    40 (   32) HAS LZ(WEIGHT)=-1.00( 50.0%)  1.00( 50.0%) 
 MO    41 (   32) HAS LZ(WEIGHT)=-1.00( 50.0%)  1.00( 50.0%) 
 MO    42 (   33) HAS LZ(WEIGHT)= 0.00(100.0%) 
 MO    43 (   34) HAS LZ(WEIGHT)=-1.00( 50.0%)  1.00( 50.0%) 
 MO    44 (   34) HAS LZ(WEIGHT)=-1.00( 50.0%)  1.00( 50.0%) 
 MO    45 (   35) HAS LZ(WEIGHT)=-1.00( 50.0%)  1.00( 50.0%) 
 MO    46 (   35) HAS LZ(WEIGHT)=-1.00( 50.0%)  1.00( 50.0%) 
 MO    47 (   36) HAS LZ(WEIGHT)= 0.00(100.0%) 
 MO    48 (   37) HAS LZ(WEIGHT)= 0.00(100.0%) 
 MO    49 (   38) HAS LZ(WEIGHT)=-1.00( 50.0%)  1.00( 50.0%) 
 MO    50 (   38) HAS LZ(WEIGHT)=-1.00( 50.0%)  1.00( 50.0%) 
 MO    51 (   39) HAS LZ(WEIGHT)= 0.00(100.0%) 
 MO    52 (   40) HAS LZ(WEIGHT)= 0.00(100.0%) 
 MO    53 (   41) HAS LZ(WEIGHT)= 0.00(100.0%) 
 MO    54 (   42) HAS LZ(WEIGHT)= 0.00(100.0%) 
 MO    55 (   43) HAS LZ(WEIGHT)=-1.00( 50.0%)  1.00( 50.0%) 
 MO    56 (   43) HAS LZ(WEIGHT)=-1.00( 50.0%)  1.00( 50.0%) 
 MO    57 (   44) HAS LZ(WEIGHT)=-2.00( 50.0%)  2.00( 50.0%) 
 MO    58 (   44) HAS LZ(WEIGHT)=-2.00( 50.0%)  2.00( 50.0%) 
 MO    59 (   45) HAS LZ(WEIGHT)= 0.00(100.0%) 
 MO    60 (   46) HAS LZ(WEIGHT)=-2.00( 50.0%)  2.00( 50.0%) 
 MO    61 (   46) HAS LZ(WEIGHT)=-2.00( 50.0%)  2.00( 50.0%) 
 MO    62 (   47) HAS LZ(WEIGHT)= 0.00(100.0%) 
 MO    63 (   48) HAS LZ(WEIGHT)=-1.00( 50.0%)  1.00( 50.0%) 
 MO    64 (   48) HAS LZ(WEIGHT)=-1.00( 50.0%)  1.00( 50.0%) 
 MO    65 (   49) HAS LZ(WEIGHT)= 0.00(100.0%) 
 MO    66 (   50) HAS LZ(WEIGHT)=-2.00( 50.0%)  2.00( 50.0%) 
 MO    67 (   50) HAS LZ(WEIGHT)=-2.00( 50.0%)  2.00( 50.0%) 
 MO    68 (   51) HAS LZ(WEIGHT)=-1.00( 50.0%)  1.00( 50.0%) 
 MO    69 (   51) HAS LZ(WEIGHT)=-1.00( 50.0%)  1.00( 50.0%) 
 MO    70 (   52) HAS LZ(WEIGHT)=-2.00( 50.0%)  2.00( 50.0%) 
 MO    71 (   52) HAS LZ(WEIGHT)=-2.00( 50.0%)  2.00( 50.0%) 
 MO    72 (   53) HAS LZ(WEIGHT)=-1.00( 50.0%)  1.00( 50.0%) 
 MO    73 (   53) HAS LZ(WEIGHT)=-1.00( 50.0%)  1.00( 50.0%) 
 MO    74 (   54) HAS LZ(WEIGHT)= 0.00(100.0%) 
 MO    75 (   55) HAS LZ(WEIGHT)= 0.00(100.0%) 
 MO    76 (   56) HAS LZ(WEIGHT)=-1.00( 50.0%)  1.00( 50.0%) 
 MO    77 (   56) HAS LZ(WEIGHT)=-1.00( 50.0%)  1.00( 50.0%) 
 MO    78 (   57) HAS LZ(WEIGHT)= 0.00(100.0%) 
 MO    79 (   58) HAS LZ(WEIGHT)= 0.00(100.0%) 
 MO    80 (   59) HAS LZ(WEIGHT)= 0.00(100.0%) 
 MO    81 (   60) HAS LZ(WEIGHT)=-1.00( 50.0%)  1.00( 50.0%) 
 MO    82 (   60) HAS LZ(WEIGHT)=-1.00( 50.0%)  1.00( 50.0%) 
 MO    83 (   61) HAS LZ(WEIGHT)= 0.00(100.0%) 
 MO    84 (   62) HAS LZ(WEIGHT)=-1.00( 50.0%)  1.00( 50.0%) 
 MO    85 (   62) HAS LZ(WEIGHT)=-1.00( 50.0%)  1.00( 50.0%) 
 MO    86 (   63) HAS LZ(WEIGHT)=-1.00( 50.0%)  1.00( 50.0%) 
 MO    87 (   63) HAS LZ(WEIGHT)=-1.00( 50.0%)  1.00( 50.0%) 
 MO    88 (   64) HAS LZ(WEIGHT)=-1.00( 50.0%)  1.00( 50.0%) 
 MO    89 (   64) HAS LZ(WEIGHT)=-1.00( 50.0%)  1.00( 50.0%) 
 MO    90 (   65) HAS LZ(WEIGHT)= 0.00(100.0%) 
 MO    91 (   66) HAS LZ(WEIGHT)=-1.00( 50.0%)  1.00( 50.0%) 
 MO    92 (   66) HAS LZ(WEIGHT)=-1.00( 50.0%)  1.00( 50.0%) 
 MO    93 (   67) HAS LZ(WEIGHT)= 0.00(100.0%) 
 MO    94 (   68) HAS LZ(WEIGHT)= 0.00(100.0%) 
 MO    95 (   69) HAS LZ(WEIGHT)= 0.00(100.0%) 
 MO    96 (   70) HAS LZ(WEIGHT)= 0.00(100.0%) 
 MO    97 (   71) HAS LZ(WEIGHT)= 0.00(100.0%) 
 MO    98 (   72) HAS LZ(WEIGHT)= 0.00(100.0%) 
 MO    99 (   73) HAS LZ(WEIGHT)= 0.00(100.0%) 
 MO   100 (   74) HAS LZ(WEIGHT)= 0.00(100.0%) 
 MO   101 (   75) HAS LZ(WEIGHT)= 0.00(100.0%) 

          ------------
          EIGENVECTORS
          ------------

                      1          2          3          4          5
                  -11.2639   -11.2629   -11.2523   -11.2523    -1.0967
                     A1G        A2U        A1G        A2U        A1G 
    1  C  1  S    0.391310   0.389806  -0.073581  -0.081855   0.077891
    2  C  1  S    0.324061   0.322799  -0.060909  -0.067799   0.128082
    3  C  1  X   -0.000000   0.000000   0.000000   0.000000   0.000000
    4  C  1  Y   -0.000000   0.000000   0.000000   0.000000   0.000000
    5  C  1  Z    0.000801   0.000453  -0.000359  -0.000380   0.014692
    6  C  1  S    0.003708   0.003635  -0.001392  -0.001322  -0.316950
    7  C  1  X   -0.000000   0.000000   0.000000   0.000000   0.000000
    8  C  1  Y   -0.000000   0.000000   0.000000   0.000000   0.000000
    9  C  1  Z   -0.001687  -0.001056   0.001128   0.001624   0.004033
   10  C  1  S   -0.001352   0.003679   0.001869  -0.001050  -0.133056
   11  C  1  X   -0.000000   0.000000   0.000000   0.000000   0.000000
   12  C  1  Y   -0.000000   0.000000   0.000000   0.000000   0.000000
   13  C  1  Z    0.001411   0.003988  -0.001319  -0.005480  -0.005260
   14  C  1  S    0.013352  -0.009504  -0.014295   0.007799   1.912312
   15  C  1  X   -0.000000   0.000000   0.000000   0.000000   0.000000
   16  C  1  Y   -0.000000   0.000000   0.000000   0.000000   0.000000
   17  C  1  Z   -0.006454   0.001555   0.006563  -0.000995  -0.687791
   18  C  1 XX   -0.000588  -0.000798   0.000246   0.000233   0.013772
   19  C  1 YY   -0.000588  -0.000798   0.000246   0.000233   0.013772
   20  C  1 ZZ    0.001176   0.001597  -0.000491  -0.000465  -0.027544
   21  C  1 XY   -0.000000   0.000000   0.000000   0.000000   0.000000
   22  C  1 XZ   -0.000000   0.000000   0.000000   0.000000   0.000000
   23  C  1 YZ   -0.000000   0.000000   0.000000   0.000000   0.000000
   24  C  2  S    0.391310  -0.389806  -0.073581   0.081855   0.077891
   25  C  2  S    0.324061  -0.322799  -0.060909   0.067799   0.128082
   26  C  2  X   -0.000000   0.000000   0.000000   0.000000   0.000000
   27  C  2  Y   -0.000000   0.000000   0.000000   0.000000   0.000000
   28  C  2  Z   -0.000801   0.000453   0.000359  -0.000380  -0.014692
   29  C  2  S    0.003708  -0.003635  -0.001392   0.001322  -0.316950
   30  C  2  X   -0.000000   0.000000   0.000000   0.000000   0.000000
   31  C  2  Y   -0.000000   0.000000   0.000000   0.000000   0.000000
   32  C  2  Z    0.001687  -0.001056  -0.001128   0.001624  -0.004033
   33  C  2  S   -0.001352  -0.003679   0.001869   0.001050  -0.133056
   34  C  2  X   -0.000000   0.000000   0.000000   0.000000   0.000000
   35  C  2  Y   -0.000000   0.000000   0.000000   0.000000   0.000000
   36  C  2  Z   -0.001411   0.003988   0.001319  -0.005480   0.005260
   37  C  2  S    0.013352   0.009504  -0.014295  -0.007799   1.912312
   38  C  2  X   -0.000000   0.000000   0.000000   0.000000   0.000000
   39  C  2  Y   -0.000000   0.000000   0.000000   0.000000   0.000000
   40  C  2  Z    0.006454   0.001555  -0.006563  -0.000995   0.687791
   41  C  2 XX   -0.000588   0.000798   0.000246  -0.000233   0.013772
   42  C  2 YY   -0.000588   0.000798   0.000246  -0.000233   0.013772
   43  C  2 ZZ    0.001176  -0.001597  -0.000491   0.000465  -0.027544
   44  C  2 XY   -0.000000   0.000000   0.000000   0.000000   0.000000
   45  C  2 XZ   -0.000000   0.000000   0.000000   0.000000   0.000000
   46  C  2 YZ   -0.000000   0.000000   0.000000   0.000000   0.000000
   47  C  3  S    0.073200   0.081440   0.391481   0.389851   0.053544
   48  C  3  S    0.060631   0.067457   0.324195   0.322830   0.088066
   49  C  3  X   -0.000000   0.000000   0.000000   0.000000   0.000000
   50  C  3  Y   -0.000000   0.000000   0.000000   0.000000   0.000000
   51  C  3  Z    0.000197   0.000163  -0.000254  -0.000282  -0.051460
   52  C  3  S    0.000028   0.000066   0.003866   0.003949  -0.212459
   53  C  3  X   -0.000000   0.000000   0.000000   0.000000   0.000000
   54  C  3  Y   -0.000000   0.000000   0.000000   0.000000   0.000000
   55  C  3  Z   -0.001166  -0.001076   0.001109   0.001311  -0.058152
   56  C  3  S    0.001398   0.002136  -0.000816  -0.003568  -0.127855
   57  C  3  X   -0.000000   0.000000   0.000000   0.000000   0.000000
   58  C  3  Y   -0.000000   0.000000   0.000000   0.000000   0.000000
   59  C  3  Z    0.000809   0.000652  -0.001476  -0.002410  -0.030361
   60  C  3  S   -0.014368   0.007248   0.014220  -0.006240  -1.813353
   61  C  3  X   -0.000000   0.000000   0.000000   0.000000   0.000000
   62  C  3  Y   -0.000000   0.000000   0.000000   0.000000   0.000000
   63  C  3  Z   -0.001391   0.002530   0.002191  -0.001533  -0.397478
   64  C  3 XX   -0.000036  -0.000018  -0.000710  -0.000727   0.009750
   65  C  3 YY   -0.000036  -0.000018  -0.000710  -0.000727   0.009750
   66  C  3 ZZ    0.000072   0.000037   0.001420   0.001455  -0.019499
   67  C  3 XY   -0.000000   0.000000   0.000000   0.000000   0.000000
   68  C  3 XZ   -0.000000   0.000000   0.000000   0.000000   0.000000
   69  C  3 YZ   -0.000000   0.000000   0.000000   0.000000   0.000000
   70  C  4  S    0.073200  -0.081440   0.391481  -0.389851   0.053544
   71  C  4  S    0.060631  -0.067457   0.324195  -0.322830   0.088066
   72  C  4  X   -0.000000   0.000000   0.000000   0.000000   0.000000
   73  C  4  Y   -0.000000   0.000000   0.000000   0.000000   0.000000
   74  C  4  Z   -0.000197   0.000163   0.000254  -0.000282   0.051460
   75  C  4  S    0.000028  -0.000066   0.003866  -0.003949  -0.212459
   76  C  4  X   -0.000000   0.000000   0.000000   0.000000   0.000000
   77  C  4  Y   -0.000000   0.000000   0.000000   0.000000   0.000000
   78  C  4  Z    0.001166  -0.001076  -0.001109   0.001311   0.058152
   79  C  4  S    0.001398  -0.002136  -0.000816   0.003568  -0.127855
   80  C  4  X   -0.000000   0.000000   0.000000   0.000000   0.000000
   81  C  4  Y   -0.000000   0.000000   0.000000   0.000000   0.000000
   82  C  4  Z   -0.000809   0.000652   0.001476  -0.002410   0.030361
   83  C  4  S   -0.014368  -0.007248   0.014220   0.006240  -1.813353
   84  C  4  X   -0.000000   0.000000   0.000000   0.000000   0.000000
   85  C  4  Y   -0.000000   0.000000   0.000000   0.000000   0.000000
   86  C  4  Z    0.001391   0.002530  -0.002191  -0.001533   0.397478
   87  C  4 XX   -0.000036   0.000018  -0.000710   0.000727   0.009750
   88  C  4 YY   -0.000036   0.000018  -0.000710   0.000727   0.009750
   89  C  4 ZZ    0.000072  -0.000037   0.001420  -0.001455  -0.019499
   90  C  4 XY   -0.000000   0.000000   0.000000   0.000000   0.000000
   91  C  4 XZ   -0.000000   0.000000   0.000000   0.000000   0.000000
   92  C  4 YZ   -0.000000   0.000000   0.000000   0.000000   0.000000
   93  H  5  S    0.000003   0.000023   0.000094   0.000091  -0.018874
   94  H  5  S   -0.000649  -0.000651  -0.000887  -0.000811  -0.019309
   95  H  5  S    0.000856   0.000619  -0.000344  -0.000469  -0.015945
   96  H  5  S    0.000673   0.000819   0.000063  -0.000002  -0.072136
   97  H  5  X   -0.000000   0.000000   0.000000   0.000000   0.000000
   98  H  5  Y   -0.000000   0.000000   0.000000   0.000000   0.000000
   99  H  5  Z   -0.000307  -0.000265  -0.000376  -0.000331  -0.000190
  100  H  6  S    0.000003  -0.000023   0.000094  -0.000091  -0.018874
  101  H  6  S   -0.000649   0.000651  -0.000887   0.000811  -0.019309
  102  H  6  S    0.000856  -0.000619  -0.000344   0.000469  -0.015945
  103  H  6  S    0.000673  -0.000819   0.000063   0.000002  -0.072136
  104  H  6  X   -0.000000   0.000000   0.000000   0.000000   0.000000
  105  H  6  Y   -0.000000   0.000000   0.000000   0.000000   0.000000
  106  H  6  Z    0.000307  -0.000265   0.000376  -0.000331   0.000190

                      6          7          8          9         10
                   -1.0322    -0.8471    -0.7365    -0.7092    -0.4956
                     A2U        A1G        A2U        A1G        EU  
    1  C  1  S    0.055636   0.037565   0.030164   0.004966  -0.000000
    2  C  1  S    0.092495   0.064290   0.051800   0.007629  -0.000000
    3  C  1  X   -0.000000   0.000000  -0.000000   0.000000   0.139610
    4  C  1  Y   -0.000000   0.000000  -0.000000   0.000000  -0.000000
    5  C  1  Z    0.084669  -0.139526   0.048780   0.126071  -0.000000
    6  C  1  S   -0.223036  -0.181797  -0.135977  -0.011641  -0.000000
    7  C  1  X   -0.000000   0.000000  -0.000000   0.000000   0.231949
    8  C  1  Y   -0.000000   0.000000  -0.000000   0.000000  -0.000000
    9  C  1  Z    0.091363  -0.192407   0.054295   0.173697  -0.000000
   10  C  1  S   -0.165122  -0.209797  -0.162382   0.007829  -0.000000
   11  C  1  X   -0.000000   0.000000  -0.000000   0.000000   0.151729
   12  C  1  Y   -0.000000   0.000000  -0.000000   0.000000  -0.000000
   13  C  1  Z   -0.087106  -0.018314  -0.120218   0.061486  -0.000000
   14  C  1  S    0.902216  -2.109840   0.702270   0.073060  -0.000000
   15  C  1  X   -0.000000   0.000000  -0.000000   0.000000   0.001979
   16  C  1  Y   -0.000000   0.000000  -0.000000   0.000000  -0.000000
   17  C  1  Z   -0.149504   0.912811  -0.111892  -0.006638  -0.000000
   18  C  1 XX    0.011782   0.012596   0.009338  -0.001508  -0.000000
   19  C  1 YY    0.011782   0.012596   0.009338  -0.001508  -0.000000
   20  C  1 ZZ   -0.023565  -0.025191  -0.018676   0.003016  -0.000000
   21  C  1 XY   -0.000000   0.000000  -0.000000   0.000000  -0.000000
   22  C  1 XZ   -0.000000   0.000000  -0.000000   0.000000   0.001039
   23  C  1 YZ   -0.000000   0.000000  -0.000000   0.000000  -0.000000
   24  C  2  S   -0.055636   0.037565  -0.030164   0.004966  -0.000000
   25  C  2  S   -0.092495   0.064290  -0.051800   0.007629  -0.000000
   26  C  2  X   -0.000000   0.000000  -0.000000   0.000000   0.139610
   27  C  2  Y   -0.000000   0.000000  -0.000000   0.000000  -0.000000
   28  C  2  Z    0.084669   0.139526   0.048780  -0.126071  -0.000000
   29  C  2  S    0.223036  -0.181797   0.135977  -0.011641  -0.000000
   30  C  2  X   -0.000000   0.000000  -0.000000   0.000000   0.231949
   31  C  2  Y   -0.000000   0.000000  -0.000000   0.000000  -0.000000
   32  C  2  Z    0.091363   0.192407   0.054295  -0.173697  -0.000000
   33  C  2  S    0.165122  -0.209797   0.162382   0.007829  -0.000000
   34  C  2  X   -0.000000   0.000000  -0.000000   0.000000   0.151729
   35  C  2  Y   -0.000000   0.000000  -0.000000   0.000000  -0.000000
   36  C  2  Z   -0.087106   0.018314  -0.120218  -0.061486  -0.000000
   37  C  2  S   -0.902216  -2.109840  -0.702270   0.073060  -0.000000
   38  C  2  X   -0.000000   0.000000  -0.000000   0.000000   0.001979
   39  C  2  Y   -0.000000   0.000000  -0.000000   0.000000  -0.000000
   40  C  2  Z   -0.149504  -0.912811  -0.111892   0.006638  -0.000000
   41  C  2 XX   -0.011782   0.012596  -0.009338  -0.001508  -0.000000
   42  C  2 YY   -0.011782   0.012596  -0.009338  -0.001508  -0.000000
   43  C  2 ZZ    0.023565  -0.025191   0.018676   0.003016  -0.000000
   44  C  2 XY   -0.000000   0.000000  -0.000000   0.000000  -0.000000
   45  C  2 XZ   -0.000000   0.000000  -0.000000   0.000000  -0.001039
   46  C  2 YZ   -0.000000   0.000000  -0.000000   0.000000  -0.000000
   47  C  3  S    0.070050  -0.054913  -0.028188  -0.009612  -0.000000
   48  C  3  S    0.115743  -0.092540  -0.047734  -0.015892  -0.000000
   49  C  3  X   -0.000000   0.000000  -0.000000   0.000000   0.105432
   50  C  3  Y   -0.000000   0.000000  -0.000000   0.000000  -0.000000
   51  C  3  Z   -0.060107  -0.004850  -0.138175  -0.148799  -0.000000
   52  C  3  S   -0.283065   0.240281   0.129549   0.042293  -0.000000
   53  C  3  X   -0.000000   0.000000  -0.000000   0.000000   0.176472
   54  C  3  Y   -0.000000   0.000000  -0.000000   0.000000  -0.000000
   55  C  3  Z   -0.064440  -0.012072  -0.177149  -0.187764  -0.000000
   56  C  3  S   -0.243029   0.254963   0.048253   0.081784  -0.000000
   57  C  3  X   -0.000000   0.000000  -0.000000   0.000000   0.120596
   58  C  3  Y   -0.000000   0.000000  -0.000000   0.000000  -0.000000
   59  C  3  Z   -0.057481   0.028074  -0.120002  -0.087881  -0.000000
   60  C  3  S   -0.695901   2.124964  -0.541506  -0.037875  -0.000000
   61  C  3  X   -0.000000   0.000000  -0.000000   0.000000   0.010047
   62  C  3  Y   -0.000000   0.000000  -0.000000   0.000000  -0.000000
   63  C  3  Z   -0.189473   0.336576  -0.182491  -0.041917  -0.000000
   64  C  3 XX    0.013081  -0.013507  -0.005543   0.000123  -0.000000
   65  C  3 YY    0.013081  -0.013507  -0.005543   0.000123  -0.000000
   66  C  3 ZZ   -0.026163   0.027014   0.011085  -0.000247  -0.000000
   67  C  3 XY   -0.000000   0.000000  -0.000000   0.000000  -0.000000
   68  C  3 XZ   -0.000000   0.000000  -0.000000   0.000000   0.027042
   69  C  3 YZ   -0.000000   0.000000  -0.000000   0.000000  -0.000000
   70  C  4  S   -0.070050  -0.054913   0.028188  -0.009612  -0.000000
   71  C  4  S   -0.115743  -0.092540   0.047734  -0.015892  -0.000000
   72  C  4  X   -0.000000   0.000000  -0.000000   0.000000   0.105432
   73  C  4  Y   -0.000000   0.000000  -0.000000   0.000000  -0.000000
   74  C  4  Z   -0.060107   0.004850  -0.138175   0.148799  -0.000000
   75  C  4  S    0.283065   0.240281  -0.129549   0.042293  -0.000000
   76  C  4  X   -0.000000   0.000000  -0.000000   0.000000   0.176472
   77  C  4  Y   -0.000000   0.000000  -0.000000   0.000000  -0.000000
   78  C  4  Z   -0.064440   0.012072  -0.177149   0.187764  -0.000000
   79  C  4  S    0.243029   0.254963  -0.048253   0.081784  -0.000000
   80  C  4  X   -0.000000   0.000000  -0.000000   0.000000   0.120596
   81  C  4  Y   -0.000000   0.000000  -0.000000   0.000000  -0.000000
   82  C  4  Z   -0.057481  -0.028074  -0.120002   0.087881  -0.000000
   83  C  4  S    0.695901   2.124964   0.541506  -0.037875  -0.000000
   84  C  4  X   -0.000000   0.000000  -0.000000   0.000000   0.010047
   85  C  4  Y   -0.000000   0.000000  -0.000000   0.000000  -0.000000
   86  C  4  Z   -0.189473  -0.336576  -0.182491   0.041917  -0.000000
   87  C  4 XX   -0.013081  -0.013507   0.005543   0.000123  -0.000000
   88  C  4 YY   -0.013081  -0.013507   0.005543   0.000123  -0.000000
   89  C  4 ZZ    0.026163   0.027014  -0.011085  -0.000247  -0.000000
   90  C  4 XY   -0.000000   0.000000  -0.000000   0.000000  -0.000000
   91  C  4 XZ   -0.000000   0.000000  -0.000000   0.000000  -0.027042
   92  C  4 YZ   -0.000000   0.000000  -0.000000   0.000000  -0.000000
   93  H  5  S   -0.030776   0.063122   0.129458   0.116274  -0.000000
   94  H  5  S   -0.035659   0.087313   0.201371   0.189280  -0.000000
   95  H  5  S   -0.012260   0.001982  -0.005754   0.006366  -0.000000
   96  H  5  S   -0.048505  -0.008938  -0.051605  -0.022150  -0.000000
   97  H  5  X   -0.000000   0.000000  -0.000000   0.000000   0.010249
   98  H  5  Y   -0.000000   0.000000  -0.000000   0.000000  -0.000000
   99  H  5  Z   -0.000895   0.006580   0.025533   0.026041  -0.000000
  100  H  6  S    0.030776   0.063122  -0.129458   0.116274  -0.000000
  101  H  6  S    0.035659   0.087313  -0.201371   0.189280  -0.000000
  102  H  6  S    0.012260   0.001982   0.005754   0.006366  -0.000000
  103  H  6  S    0.048505  -0.008938   0.051605  -0.022150  -0.000000
  104  H  6  X   -0.000000   0.000000  -0.000000   0.000000   0.010249
  105  H  6  Y   -0.000000   0.000000  -0.000000   0.000000  -0.000000
  106  H  6  Z   -0.000895  -0.006580   0.025533  -0.026041  -0.000000

                     11         12         13         14         15
                   -0.4956    -0.3786    -0.3786     0.0381     0.0439
                     EU         EG         EG         A1G        A2U 
    1  C  1  S   -0.000000   0.000000  -0.000000  -0.003173   0.001869
    2  C  1  S   -0.000000   0.000000  -0.000000  -0.006054   0.002728
    3  C  1  X   -0.000000   0.000000   0.115227  -0.000000   0.000000
    4  C  1  Y    0.139610   0.115227  -0.000000  -0.000000   0.000000
    5  C  1  Z   -0.000000   0.000000  -0.000000   0.004181   0.000118
    6  C  1  S   -0.000000   0.000000  -0.000000   0.031118   0.011545
    7  C  1  X   -0.000000   0.000000   0.185510  -0.000000   0.000000
    8  C  1  Y    0.231949   0.185510  -0.000000  -0.000000   0.000000
    9  C  1  Z   -0.000000   0.000000  -0.000000   0.016056  -0.001556
   10  C  1  S   -0.000000   0.000000  -0.000000   0.483514  -0.156834
   11  C  1  X   -0.000000   0.000000   0.181444  -0.000000   0.000000
   12  C  1  Y    0.151729   0.181444  -0.000000  -0.000000   0.000000
   13  C  1  Z   -0.000000   0.000000  -0.000000  -0.255650  -1.610665
   14  C  1  S   -0.000000   0.000000  -0.000000  46.839947  25.991920
   15  C  1  X   -0.000000   0.000000  -0.027163  -0.000000   0.000000
   16  C  1  Y    0.001979  -0.027163  -0.000000  -0.000000   0.000000
   17  C  1  Z   -0.000000   0.000000  -0.000000 -14.861468  -5.017583
   18  C  1 XX   -0.000000   0.000000  -0.000000  -0.001243   0.002689
   19  C  1 YY   -0.000000   0.000000  -0.000000  -0.001243   0.002689
   20  C  1 ZZ   -0.000000   0.000000  -0.000000   0.002486  -0.005378
   21  C  1 XY   -0.000000   0.000000  -0.000000  -0.000000   0.000000
   22  C  1 XZ   -0.000000   0.000000  -0.039669  -0.000000   0.000000
   23  C  1 YZ    0.001039  -0.039669  -0.000000  -0.000000   0.000000
   24  C  2  S   -0.000000   0.000000  -0.000000  -0.003173  -0.001869
   25  C  2  S   -0.000000   0.000000  -0.000000  -0.006054  -0.002728
   26  C  2  X   -0.000000   0.000000  -0.115227  -0.000000   0.000000
   27  C  2  Y    0.139610  -0.115227  -0.000000  -0.000000   0.000000
   28  C  2  Z   -0.000000   0.000000  -0.000000  -0.004181   0.000118
   29  C  2  S   -0.000000   0.000000  -0.000000   0.031118  -0.011545
   30  C  2  X   -0.000000   0.000000  -0.185510  -0.000000   0.000000
   31  C  2  Y    0.231949  -0.185510  -0.000000  -0.000000   0.000000
   32  C  2  Z   -0.000000   0.000000  -0.000000  -0.016056  -0.001556
   33  C  2  S   -0.000000   0.000000  -0.000000   0.483514   0.156834
   34  C  2  X   -0.000000   0.000000  -0.181444  -0.000000   0.000000
   35  C  2  Y    0.151729  -0.181444  -0.000000  -0.000000   0.000000
   36  C  2  Z   -0.000000   0.000000  -0.000000   0.255650  -1.610665
   37  C  2  S   -0.000000   0.000000  -0.000000  46.839947 -25.991920
   38  C  2  X   -0.000000   0.000000   0.027163  -0.000000   0.000000
   39  C  2  Y    0.001979   0.027163  -0.000000  -0.000000   0.000000
   40  C  2  Z   -0.000000   0.000000  -0.000000  14.861468  -5.017583
   41  C  2 XX   -0.000000   0.000000  -0.000000  -0.001243  -0.002689
   42  C  2 YY   -0.000000   0.000000  -0.000000  -0.001243  -0.002689
   43  C  2 ZZ   -0.000000   0.000000  -0.000000   0.002486   0.005378
   44  C  2 XY   -0.000000   0.000000  -0.000000  -0.000000   0.000000
   45  C  2 XZ   -0.000000   0.000000  -0.039669  -0.000000   0.000000
   46  C  2 YZ   -0.001039  -0.039669  -0.000000  -0.000000   0.000000
   47  C  3  S   -0.000000   0.000000  -0.000000  -0.009096  -0.009120
   48  C  3  S   -0.000000   0.000000  -0.000000  -0.016233  -0.016373
   49  C  3  X   -0.000000   0.000000   0.141514  -0.000000   0.000000
   50  C  3  Y    0.105432   0.141514  -0.000000  -0.000000   0.000000
   51  C  3  Z   -0.000000   0.000000  -0.000000  -0.014404  -0.015993
   52  C  3  S   -0.000000   0.000000  -0.000000   0.062403   0.062976
   53  C  3  X   -0.000000   0.000000   0.227146  -0.000000   0.000000
   54  C  3  Y    0.176472   0.227146  -0.000000  -0.000000   0.000000
   55  C  3  Z   -0.000000   0.000000  -0.000000   0.001182  -0.014337
   56  C  3  S   -0.000000   0.000000  -0.000000  -0.287333  -1.263425
   57  C  3  X   -0.000000   0.000000   0.192134  -0.000000   0.000000
   58  C  3  Y    0.120596   0.192134  -0.000000  -0.000000   0.000000
   59  C  3  Z   -0.000000   0.000000  -0.000000  -0.404026  -0.831719
   60  C  3  S   -0.000000   0.000000  -0.000000 -40.929203 -18.994340
   61  C  3  X   -0.000000   0.000000   0.040586  -0.000000   0.000000
   62  C  3  Y    0.010047   0.040586  -0.000000  -0.000000   0.000000
   63  C  3  Z   -0.000000   0.000000  -0.000000 -12.335909  -8.693100
   64  C  3 XX   -0.000000   0.000000  -0.000000   0.001974   0.002312
   65  C  3 YY   -0.000000   0.000000  -0.000000   0.001974   0.002312
   66  C  3 ZZ   -0.000000   0.000000  -0.000000  -0.003948  -0.004623
   67  C  3 XY   -0.000000   0.000000  -0.000000  -0.000000   0.000000
   68  C  3 XZ   -0.000000   0.000000   0.018951  -0.000000   0.000000
   69  C  3 YZ    0.027042   0.018951  -0.000000  -0.000000   0.000000
   70  C  4  S   -0.000000   0.000000  -0.000000  -0.009096   0.009120
   71  C  4  S   -0.000000   0.000000  -0.000000  -0.016233   0.016373
   72  C  4  X   -0.000000   0.000000  -0.141514  -0.000000   0.000000
   73  C  4  Y    0.105432  -0.141514  -0.000000  -0.000000   0.000000
   74  C  4  Z   -0.000000   0.000000  -0.000000   0.014404  -0.015993
   75  C  4  S   -0.000000   0.000000  -0.000000   0.062403  -0.062976
   76  C  4  X   -0.000000   0.000000  -0.227146  -0.000000   0.000000
   77  C  4  Y    0.176472  -0.227146  -0.000000  -0.000000   0.000000
   78  C  4  Z   -0.000000   0.000000  -0.000000  -0.001182  -0.014337
   79  C  4  S   -0.000000   0.000000  -0.000000  -0.287333   1.263425
   80  C  4  X   -0.000000   0.000000  -0.192134  -0.000000   0.000000
   81  C  4  Y    0.120596  -0.192134  -0.000000  -0.000000   0.000000
   82  C  4  Z   -0.000000   0.000000  -0.000000   0.404026  -0.831719
   83  C  4  S   -0.000000   0.000000  -0.000000 -40.929203  18.994340
   84  C  4  X   -0.000000   0.000000  -0.040586  -0.000000   0.000000
   85  C  4  Y    0.010047  -0.040586  -0.000000  -0.000000   0.000000
   86  C  4  Z   -0.000000   0.000000  -0.000000  12.335909  -8.693100
   87  C  4 XX   -0.000000   0.000000  -0.000000   0.001974  -0.002312
   88  C  4 YY   -0.000000   0.000000  -0.000000   0.001974  -0.002312
   89  C  4 ZZ   -0.000000   0.000000  -0.000000  -0.003948   0.004623
   90  C  4 XY   -0.000000   0.000000  -0.000000  -0.000000   0.000000
   91  C  4 XZ   -0.000000   0.000000   0.018951  -0.000000   0.000000
   92  C  4 YZ   -0.027042   0.018951  -0.000000  -0.000000   0.000000
   93  H  5  S   -0.000000   0.000000  -0.000000   0.006421   0.005486
   94  H  5  S   -0.000000   0.000000  -0.000000   0.057802   0.029525
   95  H  5  S   -0.000000   0.000000  -0.000000  -0.839358  -0.987150
   96  H  5  S   -0.000000   0.000000  -0.000000  -5.792577  -5.997634
   97  H  5  X   -0.000000   0.000000   0.012921  -0.000000   0.000000
   98  H  5  Y    0.010249   0.012921  -0.000000  -0.000000   0.000000
   99  H  5  Z   -0.000000   0.000000  -0.000000   0.009928   0.009411
  100  H  6  S   -0.000000   0.000000  -0.000000   0.006421  -0.005486
  101  H  6  S   -0.000000   0.000000  -0.000000   0.057802  -0.029525
  102  H  6  S   -0.000000   0.000000  -0.000000  -0.839358   0.987150
  103  H  6  S   -0.000000   0.000000  -0.000000  -5.792577   5.997634
  104  H  6  X   -0.000000   0.000000  -0.012921  -0.000000   0.000000
  105  H  6  Y    0.010249  -0.012921  -0.000000  -0.000000   0.000000
  106  H  6  Z   -0.000000   0.000000  -0.000000  -0.009928   0.009411

                     16         17         18         19         20
                    0.0890     0.0890     0.1032     0.1201     0.1201
                     EU         EU         A1G        EG         EG  
    1  C  1  S   -0.000000  -0.000000  -0.012696  -0.000000   0.000000
    2  C  1  S   -0.000000  -0.000000  -0.020506  -0.000000   0.000000
    3  C  1  X   -0.080868  -0.000000   0.000000  -0.000000   0.040119
    4  C  1  Y   -0.000000  -0.080868   0.000000   0.040119   0.000000
    5  C  1  Z   -0.000000  -0.000000  -0.005668  -0.000000   0.000000
    6  C  1  S   -0.000000  -0.000000   0.029227  -0.000000   0.000000
    7  C  1  X   -0.124433  -0.000000   0.000000  -0.000000   0.074974
    8  C  1  Y   -0.000000  -0.124433   0.000000   0.074974   0.000000
    9  C  1  Z   -0.000000  -0.000000  -0.021086  -0.000000   0.000000
   10  C  1  S   -0.000000  -0.000000   1.533689  -0.000000   0.000000
   11  C  1  X   -0.222152  -0.000000   0.000000  -0.000000  -0.007559
   12  C  1  Y   -0.000000  -0.222152   0.000000  -0.007559   0.000000
   13  C  1  Z   -0.000000  -0.000000  -0.595933  -0.000000   0.000000
   14  C  1  S   -0.000000  -0.000000 138.360974  -0.000000   0.000000
   15  C  1  X   -0.606324  -0.000000   0.000000  -0.000000   4.114452
   16  C  1  Y   -0.000000  -0.606324   0.000000   4.114452   0.000000
   17  C  1  Z   -0.000000  -0.000000 -49.769051  -0.000000   0.000000
   18  C  1 XX   -0.000000  -0.000000  -0.010298  -0.000000   0.000000
   19  C  1 YY   -0.000000  -0.000000  -0.010298  -0.000000   0.000000
   20  C  1 ZZ   -0.000000  -0.000000   0.020596  -0.000000   0.000000
   21  C  1 XY   -0.000000  -0.000000   0.000000  -0.000000   0.000000
   22  C  1 XZ   -0.033989  -0.000000   0.000000  -0.000000  -0.008565
   23  C  1 YZ   -0.000000  -0.033989   0.000000  -0.008565   0.000000
   24  C  2  S   -0.000000  -0.000000  -0.012696  -0.000000   0.000000
   25  C  2  S   -0.000000  -0.000000  -0.020506  -0.000000   0.000000
   26  C  2  X   -0.080868  -0.000000   0.000000  -0.000000  -0.040119
   27  C  2  Y   -0.000000  -0.080868   0.000000  -0.040119   0.000000
   28  C  2  Z   -0.000000  -0.000000   0.005668  -0.000000   0.000000
   29  C  2  S   -0.000000  -0.000000   0.029227  -0.000000   0.000000
   30  C  2  X   -0.124433  -0.000000   0.000000  -0.000000  -0.074974
   31  C  2  Y   -0.000000  -0.124433   0.000000  -0.074974   0.000000
   32  C  2  Z   -0.000000  -0.000000   0.021086  -0.000000   0.000000
   33  C  2  S   -0.000000  -0.000000   1.533689  -0.000000   0.000000
   34  C  2  X   -0.222152  -0.000000   0.000000  -0.000000   0.007559
   35  C  2  Y   -0.000000  -0.222152   0.000000   0.007559   0.000000
   36  C  2  Z   -0.000000  -0.000000   0.595933  -0.000000   0.000000
   37  C  2  S   -0.000000  -0.000000 138.360974  -0.000000   0.000000
   38  C  2  X   -0.606324  -0.000000   0.000000  -0.000000  -4.114452
   39  C  2  Y   -0.000000  -0.606324   0.000000  -4.114452   0.000000
   40  C  2  Z   -0.000000  -0.000000  49.769051  -0.000000   0.000000
   41  C  2 XX   -0.000000  -0.000000  -0.010298  -0.000000   0.000000
   42  C  2 YY   -0.000000  -0.000000  -0.010298  -0.000000   0.000000
   43  C  2 ZZ   -0.000000  -0.000000   0.020596  -0.000000   0.000000
   44  C  2 XY   -0.000000  -0.000000   0.000000  -0.000000   0.000000
   45  C  2 XZ    0.033989  -0.000000   0.000000  -0.000000  -0.008565
   46  C  2 YZ   -0.000000   0.033989   0.000000  -0.008565   0.000000
   47  C  3  S   -0.000000  -0.000000   0.000588  -0.000000   0.000000
   48  C  3  S   -0.000000  -0.000000   0.001191  -0.000000   0.000000
   49  C  3  X    0.066901  -0.000000   0.000000  -0.000000   0.022775
   50  C  3  Y   -0.000000   0.066901   0.000000   0.022775   0.000000
   51  C  3  Z   -0.000000  -0.000000   0.025759  -0.000000   0.000000
   52  C  3  S   -0.000000  -0.000000   0.002544  -0.000000   0.000000
   53  C  3  X    0.130580  -0.000000   0.000000  -0.000000  -0.001740
   54  C  3  Y   -0.000000   0.130580   0.000000  -0.001740   0.000000
   55  C  3  Z   -0.000000  -0.000000   0.026652  -0.000000   0.000000
   56  C  3  S   -0.000000  -0.000000  -0.911952  -0.000000   0.000000
   57  C  3  X    0.127929  -0.000000   0.000000  -0.000000   0.198447
   58  C  3  Y   -0.000000   0.127929   0.000000   0.198447   0.000000
   59  C  3  Z   -0.000000  -0.000000  -0.810145  -0.000000   0.000000
   60  C  3  S   -0.000000  -0.000000-135.104772  -0.000000   0.000000
   61  C  3  X    1.113167  -0.000000   0.000000  -0.000000  -2.719422
   62  C  3  Y   -0.000000   1.113167   0.000000  -2.719422   0.000000
   63  C  3  Z   -0.000000  -0.000000 -28.970324  -0.000000   0.000000
   64  C  3 XX   -0.000000  -0.000000  -0.003906  -0.000000   0.000000
   65  C  3 YY   -0.000000  -0.000000  -0.003906  -0.000000   0.000000
   66  C  3 ZZ   -0.000000  -0.000000   0.007813  -0.000000   0.000000
   67  C  3 XY   -0.000000  -0.000000   0.000000  -0.000000   0.000000
   68  C  3 XZ   -0.023370  -0.000000   0.000000  -0.000000   0.015459
   69  C  3 YZ   -0.000000  -0.023370   0.000000   0.015459   0.000000
   70  C  4  S   -0.000000  -0.000000   0.000588  -0.000000   0.000000
   71  C  4  S   -0.000000  -0.000000   0.001191  -0.000000   0.000000
   72  C  4  X    0.066901  -0.000000   0.000000  -0.000000  -0.022775
   73  C  4  Y   -0.000000   0.066901   0.000000  -0.022775   0.000000
   74  C  4  Z   -0.000000  -0.000000  -0.025759  -0.000000   0.000000
   75  C  4  S   -0.000000  -0.000000   0.002544  -0.000000   0.000000
   76  C  4  X    0.130580  -0.000000   0.000000  -0.000000   0.001740
   77  C  4  Y   -0.000000   0.130580   0.000000   0.001740   0.000000
   78  C  4  Z   -0.000000  -0.000000  -0.026652  -0.000000   0.000000
   79  C  4  S   -0.000000  -0.000000  -0.911952  -0.000000   0.000000
   80  C  4  X    0.127929  -0.000000   0.000000  -0.000000  -0.198447
   81  C  4  Y   -0.000000   0.127929   0.000000  -0.198447   0.000000
   82  C  4  Z   -0.000000  -0.000000   0.810145  -0.000000   0.000000
   83  C  4  S   -0.000000  -0.000000-135.104772  -0.000000   0.000000
   84  C  4  X    1.113167  -0.000000   0.000000  -0.000000   2.719422
   85  C  4  Y   -0.000000   1.113167   0.000000   2.719422   0.000000
   86  C  4  Z   -0.000000  -0.000000  28.970324  -0.000000   0.000000
   87  C  4 XX   -0.000000  -0.000000  -0.003906  -0.000000   0.000000
   88  C  4 YY   -0.000000  -0.000000  -0.003906  -0.000000   0.000000
   89  C  4 ZZ   -0.000000  -0.000000   0.007813  -0.000000   0.000000
   90  C  4 XY   -0.000000  -0.000000   0.000000  -0.000000   0.000000
   91  C  4 XZ    0.023370  -0.000000   0.000000  -0.000000   0.015459
   92  C  4 YZ   -0.000000   0.023370   0.000000   0.015459   0.000000
   93  H  5  S   -0.000000  -0.000000   0.012690  -0.000000   0.000000
   94  H  5  S   -0.000000  -0.000000  -0.049938  -0.000000   0.000000
   95  H  5  S   -0.000000  -0.000000  -0.576033  -0.000000   0.000000
   96  H  5  S   -0.000000  -0.000000  -2.954154  -0.000000   0.000000
   97  H  5  X    0.018247  -0.000000   0.000000  -0.000000  -0.009370
   98  H  5  Y   -0.000000   0.018247   0.000000  -0.009370   0.000000
   99  H  5  Z   -0.000000  -0.000000  -0.017006  -0.000000   0.000000
  100  H  6  S   -0.000000  -0.000000   0.012690  -0.000000   0.000000
  101  H  6  S   -0.000000  -0.000000  -0.049938  -0.000000   0.000000
  102  H  6  S   -0.000000  -0.000000  -0.576033  -0.000000   0.000000
  103  H  6  S   -0.000000  -0.000000  -2.954154  -0.000000   0.000000
  104  H  6  X    0.018247  -0.000000   0.000000  -0.000000   0.009370
  105  H  6  Y   -0.000000   0.018247   0.000000   0.009370   0.000000
  106  H  6  Z   -0.000000  -0.000000   0.017006  -0.000000   0.000000

                     21         22         23         24         25
                    0.1369     0.1369     0.1466     0.1776     0.1820
                     EU         EU         A2U        A1G        A2U 
    1  C  1  S   -0.000000  -0.000000  -0.009519   0.008247  -0.001671
    2  C  1  S   -0.000000  -0.000000  -0.015533   0.012127  -0.005065
    3  C  1  X    0.014700  -0.000000  -0.000000  -0.000000  -0.000000
    4  C  1  Y   -0.000000   0.014700  -0.000000  -0.000000  -0.000000
    5  C  1  Z   -0.000000  -0.000000  -0.020179  -0.016449   0.012801
    6  C  1  S   -0.000000  -0.000000   0.054316   0.005700   0.053644
    7  C  1  X    0.061496  -0.000000  -0.000000  -0.000000  -0.000000
    8  C  1  Y   -0.000000   0.061496  -0.000000  -0.000000  -0.000000
    9  C  1  Z   -0.000000  -0.000000   0.019146   0.006925  -0.000235
   10  C  1  S   -0.000000  -0.000000  -0.134080   0.403701  -0.228245
   11  C  1  X    0.008995  -0.000000  -0.000000  -0.000000  -0.000000
   12  C  1  Y   -0.000000   0.008995  -0.000000  -0.000000  -0.000000
   13  C  1  Z   -0.000000  -0.000000  -2.783135  -0.448221  -3.607898
   14  C  1  S   -0.000000  -0.000000  83.170708  75.472135  34.768221
   15  C  1  X    0.508743  -0.000000  -0.000000  -0.000000  -0.000000
   16  C  1  Y   -0.000000   0.508743  -0.000000  -0.000000  -0.000000
   17  C  1  Z   -0.000000  -0.000000 -12.298538 -22.009845  -7.328668
   18  C  1 XX   -0.000000  -0.000000   0.008434   0.011927   0.005805
   19  C  1 YY   -0.000000  -0.000000   0.008434   0.011927   0.005805
   20  C  1 ZZ   -0.000000  -0.000000  -0.016869  -0.023854  -0.011609
   21  C  1 XY   -0.000000  -0.000000  -0.000000  -0.000000  -0.000000
   22  C  1 XZ    0.030555  -0.000000  -0.000000  -0.000000  -0.000000
   23  C  1 YZ   -0.000000   0.030555  -0.000000  -0.000000  -0.000000
   24  C  2  S   -0.000000  -0.000000   0.009519   0.008247   0.001671
   25  C  2  S   -0.000000  -0.000000   0.015533   0.012127   0.005065
   26  C  2  X    0.014700  -0.000000  -0.000000  -0.000000  -0.000000
   27  C  2  Y   -0.000000   0.014700  -0.000000  -0.000000  -0.000000
   28  C  2  Z   -0.000000  -0.000000  -0.020179   0.016449   0.012801
   29  C  2  S   -0.000000  -0.000000  -0.054316   0.005700  -0.053644
   30  C  2  X    0.061496  -0.000000  -0.000000  -0.000000  -0.000000
   31  C  2  Y   -0.000000   0.061496  -0.000000  -0.000000  -0.000000
   32  C  2  Z   -0.000000  -0.000000   0.019146  -0.006925  -0.000235
   33  C  2  S   -0.000000  -0.000000   0.134080   0.403701   0.228245
   34  C  2  X    0.008995  -0.000000  -0.000000  -0.000000  -0.000000
   35  C  2  Y   -0.000000   0.008995  -0.000000  -0.000000  -0.000000
   36  C  2  Z   -0.000000  -0.000000  -2.783135   0.448221  -3.607898
   37  C  2  S   -0.000000  -0.000000 -83.170708  75.472135 -34.768221
   38  C  2  X    0.508743  -0.000000  -0.000000  -0.000000  -0.000000
   39  C  2  Y   -0.000000   0.508743  -0.000000  -0.000000  -0.000000
   40  C  2  Z   -0.000000  -0.000000 -12.298538  22.009845  -7.328668
   41  C  2 XX   -0.000000  -0.000000  -0.008434   0.011927  -0.005805
   42  C  2 YY   -0.000000  -0.000000  -0.008434   0.011927  -0.005805
   43  C  2 ZZ   -0.000000  -0.000000   0.016869  -0.023854   0.011609
   44  C  2 XY   -0.000000  -0.000000  -0.000000  -0.000000  -0.000000
   45  C  2 XZ   -0.030555  -0.000000  -0.000000  -0.000000  -0.000000
   46  C  2 YZ   -0.000000  -0.030555  -0.000000  -0.000000  -0.000000
   47  C  3  S   -0.000000  -0.000000   0.005002   0.020206   0.020830
   48  C  3  S   -0.000000  -0.000000   0.007060   0.033470   0.035642
   49  C  3  X   -0.106507  -0.000000  -0.000000  -0.000000  -0.000000
   50  C  3  Y   -0.000000  -0.106507  -0.000000  -0.000000  -0.000000
   51  C  3  Z   -0.000000  -0.000000   0.025634   0.018344   0.020983
   52  C  3  S   -0.000000  -0.000000  -0.016263  -0.054700  -0.061914
   53  C  3  X   -0.129961  -0.000000  -0.000000  -0.000000  -0.000000
   54  C  3  Y   -0.000000  -0.129961  -0.000000  -0.000000  -0.000000
   55  C  3  Z   -0.000000  -0.000000   0.068739   0.098292   0.037090
   56  C  3  S   -0.000000  -0.000000  -2.073423  -0.868519  -3.496521
   57  C  3  X   -0.432737  -0.000000  -0.000000  -0.000000  -0.000000
   58  C  3  Y   -0.000000  -0.432737  -0.000000  -0.000000  -0.000000
   59  C  3  Z   -0.000000  -0.000000  -1.437622  -0.531042  -1.638198
   60  C  3  S   -0.000000  -0.000000 -65.055863 -64.162221 -24.575186
   61  C  3  X    0.086683  -0.000000  -0.000000  -0.000000  -0.000000
   62  C  3  Y   -0.000000   0.086683  -0.000000  -0.000000  -0.000000
   63  C  3  Z   -0.000000  -0.000000 -21.188447 -21.438076 -13.508655
   64  C  3 XX   -0.000000  -0.000000  -0.019676   0.012832   0.020991
   65  C  3 YY   -0.000000  -0.000000  -0.019676   0.012832   0.020991
   66  C  3 ZZ   -0.000000  -0.000000   0.039351  -0.025663  -0.041982
   67  C  3 XY   -0.000000  -0.000000  -0.000000  -0.000000  -0.000000
   68  C  3 XZ    0.006314  -0.000000  -0.000000  -0.000000  -0.000000
   69  C  3 YZ   -0.000000   0.006314  -0.000000  -0.000000  -0.000000
   70  C  4  S   -0.000000  -0.000000  -0.005002   0.020206  -0.020830
   71  C  4  S   -0.000000  -0.000000  -0.007060   0.033470  -0.035642
   72  C  4  X   -0.106507  -0.000000  -0.000000  -0.000000  -0.000000
   73  C  4  Y   -0.000000  -0.106507  -0.000000  -0.000000  -0.000000
   74  C  4  Z   -0.000000  -0.000000   0.025634  -0.018344   0.020983
   75  C  4  S   -0.000000  -0.000000   0.016263  -0.054700   0.061914
   76  C  4  X   -0.129961  -0.000000  -0.000000  -0.000000  -0.000000
   77  C  4  Y   -0.000000  -0.129961  -0.000000  -0.000000  -0.000000
   78  C  4  Z   -0.000000  -0.000000   0.068739  -0.098292   0.037090
   79  C  4  S   -0.000000  -0.000000   2.073423  -0.868519   3.496521
   80  C  4  X   -0.432737  -0.000000  -0.000000  -0.000000  -0.000000
   81  C  4  Y   -0.000000  -0.432737  -0.000000  -0.000000  -0.000000
   82  C  4  Z   -0.000000  -0.000000  -1.437622   0.531042  -1.638198
   83  C  4  S   -0.000000  -0.000000  65.055863 -64.162221  24.575186
   84  C  4  X    0.086683  -0.000000  -0.000000  -0.000000  -0.000000
   85  C  4  Y   -0.000000   0.086683  -0.000000  -0.000000  -0.000000
   86  C  4  Z   -0.000000  -0.000000 -21.188447  21.438076 -13.508655
   87  C  4 XX   -0.000000  -0.000000   0.019676   0.012832  -0.020991
   88  C  4 YY   -0.000000  -0.000000   0.019676   0.012832  -0.020991
   89  C  4 ZZ   -0.000000  -0.000000  -0.039351  -0.025663   0.041982
   90  C  4 XY   -0.000000  -0.000000  -0.000000  -0.000000  -0.000000
   91  C  4 XZ   -0.006314  -0.000000  -0.000000  -0.000000  -0.000000
   92  C  4 YZ   -0.000000  -0.006314  -0.000000  -0.000000  -0.000000
   93  H  5  S   -0.000000  -0.000000   0.019813  -0.025848  -0.029272
   94  H  5  S   -0.000000  -0.000000  -0.070246   0.117736   0.068820
   95  H  5  S   -0.000000  -0.000000  -1.042910  -1.860737  -2.317022
   96  H  5  S   -0.000000  -0.000000  -5.936847  -9.088750  -8.651116
   97  H  5  X   -0.012343  -0.000000  -0.000000  -0.000000  -0.000000
   98  H  5  Y   -0.000000  -0.012343  -0.000000  -0.000000  -0.000000
   99  H  5  Z   -0.000000  -0.000000  -0.027520   0.005036   0.005583
  100  H  6  S   -0.000000  -0.000000  -0.019813  -0.025848   0.029272
  101  H  6  S   -0.000000  -0.000000   0.070246   0.117736  -0.068820
  102  H  6  S   -0.000000  -0.000000   1.042910  -1.860737   2.317022
  103  H  6  S   -0.000000  -0.000000   5.936847  -9.088750   8.651116
  104  H  6  X   -0.012343  -0.000000  -0.000000  -0.000000  -0.000000
  105  H  6  Y   -0.000000  -0.012343  -0.000000  -0.000000  -0.000000
  106  H  6  Z   -0.000000  -0.000000  -0.027520  -0.005036   0.005583

                     26         27         28         29         30
                    0.2066     0.2120     0.2120     0.2501     0.2501
                     A1G        EU         EU         EG         EG  
    1  C  1  S    0.011773  -0.000000  -0.000000   0.000000  -0.000000
    2  C  1  S    0.019088  -0.000000  -0.000000   0.000000  -0.000000
    3  C  1  X    0.000000   0.081110  -0.000000   0.000000  -0.024498
    4  C  1  Y    0.000000  -0.000000   0.081110  -0.024498  -0.000000
    5  C  1  Z   -0.008301  -0.000000  -0.000000   0.000000  -0.000000
    6  C  1  S   -0.028345  -0.000000  -0.000000   0.000000  -0.000000
    7  C  1  X    0.000000   0.076859  -0.000000   0.000000   0.022374
    8  C  1  Y    0.000000  -0.000000   0.076859   0.022374  -0.000000
    9  C  1  Z   -0.007123  -0.000000  -0.000000   0.000000  -0.000000
   10  C  1  S    0.159392  -0.000000  -0.000000   0.000000  -0.000000
   11  C  1  X    0.000000   0.512991  -0.000000   0.000000  -0.373204
   12  C  1  Y    0.000000  -0.000000   0.512991  -0.373204  -0.000000
   13  C  1  Z   -0.198848  -0.000000  -0.000000   0.000000  -0.000000
   14  C  1  S  230.768109  -0.000000  -0.000000   0.000000  -0.000000
   15  C  1  X    0.000000  -1.804924  -0.000000   0.000000  10.189660
   16  C  1  Y    0.000000  -0.000000  -1.804924  10.189660  -0.000000
   17  C  1  Z  -86.414050  -0.000000  -0.000000   0.000000  -0.000000
   18  C  1 XX    0.013013  -0.000000  -0.000000   0.000000  -0.000000
   19  C  1 YY    0.013013  -0.000000  -0.000000   0.000000  -0.000000
   20  C  1 ZZ   -0.026026  -0.000000  -0.000000   0.000000  -0.000000
   21  C  1 XY    0.000000  -0.000000  -0.000000   0.000000  -0.000000
   22  C  1 XZ    0.000000   0.029669  -0.000000   0.000000   0.005179
   23  C  1 YZ    0.000000  -0.000000   0.029669   0.005179  -0.000000
   24  C  2  S    0.011773  -0.000000  -0.000000   0.000000  -0.000000
   25  C  2  S    0.019088  -0.000000  -0.000000   0.000000  -0.000000
   26  C  2  X    0.000000   0.081110  -0.000000   0.000000   0.024498
   27  C  2  Y    0.000000  -0.000000   0.081110   0.024498  -0.000000
   28  C  2  Z    0.008301  -0.000000  -0.000000   0.000000  -0.000000
   29  C  2  S   -0.028345  -0.000000  -0.000000   0.000000  -0.000000
   30  C  2  X    0.000000   0.076859  -0.000000   0.000000  -0.022374
   31  C  2  Y    0.000000  -0.000000   0.076859  -0.022374  -0.000000
   32  C  2  Z    0.007123  -0.000000  -0.000000   0.000000  -0.000000
   33  C  2  S    0.159392  -0.000000  -0.000000   0.000000  -0.000000
   34  C  2  X    0.000000   0.512991  -0.000000   0.000000   0.373204
   35  C  2  Y    0.000000  -0.000000   0.512991   0.373204  -0.000000
   36  C  2  Z    0.198848  -0.000000  -0.000000   0.000000  -0.000000
   37  C  2  S  230.768109  -0.000000  -0.000000   0.000000  -0.000000
   38  C  2  X    0.000000  -1.804924  -0.000000   0.000000 -10.189660
   39  C  2  Y    0.000000  -0.000000  -1.804924 -10.189660  -0.000000
   40  C  2  Z   86.414050  -0.000000  -0.000000   0.000000  -0.000000
   41  C  2 XX    0.013013  -0.000000  -0.000000   0.000000  -0.000000
   42  C  2 YY    0.013013  -0.000000  -0.000000   0.000000  -0.000000
   43  C  2 ZZ   -0.026026  -0.000000  -0.000000   0.000000  -0.000000
   44  C  2 XY    0.000000  -0.000000  -0.000000   0.000000  -0.000000
   45  C  2 XZ    0.000000  -0.029669  -0.000000   0.000000   0.005179
   46  C  2 YZ    0.000000  -0.000000  -0.029669   0.005179  -0.000000
   47  C  3  S    0.000040  -0.000000  -0.000000   0.000000  -0.000000
   48  C  3  S   -0.002856  -0.000000  -0.000000   0.000000  -0.000000
   49  C  3  X    0.000000  -0.080432  -0.000000   0.000000  -0.040555
   50  C  3  Y    0.000000  -0.000000  -0.080432  -0.040555  -0.000000
   51  C  3  Z   -0.025910  -0.000000  -0.000000   0.000000  -0.000000
   52  C  3  S    0.058910  -0.000000  -0.000000   0.000000  -0.000000
   53  C  3  X    0.000000  -0.088066  -0.000000   0.000000  -0.026867
   54  C  3  Y    0.000000  -0.000000  -0.088066  -0.026867  -0.000000
   55  C  3  Z    0.000906  -0.000000  -0.000000   0.000000  -0.000000
   56  C  3  S   -0.664319  -0.000000  -0.000000   0.000000  -0.000000
   57  C  3  X    0.000000  -0.514054  -0.000000   0.000000  -0.198138
   58  C  3  Y    0.000000  -0.000000  -0.514054  -0.198138  -0.000000
   59  C  3  Z   -0.462884  -0.000000  -0.000000   0.000000  -0.000000
   60  C  3  S -229.214844  -0.000000  -0.000000   0.000000  -0.000000
   61  C  3  X    0.000000   1.968936  -0.000000   0.000000  -3.942297
   62  C  3  Y    0.000000  -0.000000   1.968936  -3.942297  -0.000000
   63  C  3  Z  -43.290071  -0.000000  -0.000000   0.000000  -0.000000
   64  C  3 XX   -0.000549  -0.000000  -0.000000   0.000000  -0.000000
   65  C  3 YY   -0.000549  -0.000000  -0.000000   0.000000  -0.000000
   66  C  3 ZZ    0.001098  -0.000000  -0.000000   0.000000  -0.000000
   67  C  3 XY    0.000000  -0.000000  -0.000000   0.000000  -0.000000
   68  C  3 XZ    0.000000   0.012099  -0.000000   0.000000   0.002705
   69  C  3 YZ    0.000000  -0.000000   0.012099   0.002705  -0.000000
   70  C  4  S    0.000040  -0.000000  -0.000000   0.000000  -0.000000
   71  C  4  S   -0.002856  -0.000000  -0.000000   0.000000  -0.000000
   72  C  4  X    0.000000  -0.080432  -0.000000   0.000000   0.040555
   73  C  4  Y    0.000000  -0.000000  -0.080432   0.040555  -0.000000
   74  C  4  Z    0.025910  -0.000000  -0.000000   0.000000  -0.000000
   75  C  4  S    0.058910  -0.000000  -0.000000   0.000000  -0.000000
   76  C  4  X    0.000000  -0.088066  -0.000000   0.000000   0.026867
   77  C  4  Y    0.000000  -0.000000  -0.088066   0.026867  -0.000000
   78  C  4  Z   -0.000906  -0.000000  -0.000000   0.000000  -0.000000
   79  C  4  S   -0.664319  -0.000000  -0.000000   0.000000  -0.000000
   80  C  4  X    0.000000  -0.514054  -0.000000   0.000000   0.198138
   81  C  4  Y    0.000000  -0.000000  -0.514054   0.198138  -0.000000
   82  C  4  Z    0.462884  -0.000000  -0.000000   0.000000  -0.000000
   83  C  4  S -229.214844  -0.000000  -0.000000   0.000000  -0.000000
   84  C  4  X    0.000000   1.968936  -0.000000   0.000000   3.942297
   85  C  4  Y    0.000000  -0.000000   1.968936   3.942297  -0.000000
   86  C  4  Z   43.290071  -0.000000  -0.000000   0.000000  -0.000000
   87  C  4 XX   -0.000549  -0.000000  -0.000000   0.000000  -0.000000
   88  C  4 YY   -0.000549  -0.000000  -0.000000   0.000000  -0.000000
   89  C  4 ZZ    0.001098  -0.000000  -0.000000   0.000000  -0.000000
   90  C  4 XY    0.000000  -0.000000  -0.000000   0.000000  -0.000000
   91  C  4 XZ    0.000000  -0.012099  -0.000000   0.000000   0.002705
   92  C  4 YZ    0.000000  -0.000000  -0.012099   0.002705  -0.000000
   93  H  5  S    0.017911  -0.000000  -0.000000   0.000000  -0.000000
   94  H  5  S   -0.108728  -0.000000  -0.000000   0.000000  -0.000000
   95  H  5  S    0.709318  -0.000000  -0.000000   0.000000  -0.000000
   96  H  5  S   -1.475790  -0.000000  -0.000000   0.000000  -0.000000
   97  H  5  X    0.000000  -0.003314  -0.000000   0.000000  -0.007211
   98  H  5  Y    0.000000  -0.000000  -0.003314  -0.007211  -0.000000
   99  H  5  Z    0.006610  -0.000000  -0.000000   0.000000  -0.000000
  100  H  6  S    0.017911  -0.000000  -0.000000   0.000000  -0.000000
  101  H  6  S   -0.108728  -0.000000  -0.000000   0.000000  -0.000000
  102  H  6  S    0.709318  -0.000000  -0.000000   0.000000  -0.000000
  103  H  6  S   -1.475790  -0.000000  -0.000000   0.000000  -0.000000
  104  H  6  X    0.000000  -0.003314  -0.000000   0.000000   0.007211
  105  H  6  Y    0.000000  -0.000000  -0.003314   0.007211  -0.000000
  106  H  6  Z   -0.006610  -0.000000  -0.000000   0.000000  -0.000000

                     31         32         33         34         35
                    0.3109     0.3159     0.3459     0.3571     0.3571
                     A2U        A1G        A2U        EG         EG  
    1  C  1  S    0.005027   0.013360   0.034293  -0.000000   0.000000
    2  C  1  S    0.010397   0.024375   0.061227  -0.000000   0.000000
    3  C  1  X   -0.000000   0.000000  -0.000000  -0.000000  -0.165349
    4  C  1  Y   -0.000000   0.000000  -0.000000  -0.165349   0.000000
    5  C  1  Z    0.052702   0.056389  -0.018144  -0.000000   0.000000
    6  C  1  S    0.019931  -0.109860  -0.170112  -0.000000   0.000000
    7  C  1  X   -0.000000   0.000000  -0.000000  -0.000000  -0.230689
    8  C  1  Y   -0.000000   0.000000  -0.000000  -0.230689   0.000000
    9  C  1  Z    0.053649   0.047227   0.061073  -0.000000   0.000000
   10  C  1  S   -0.618616   3.238808  -0.608093  -0.000000   0.000000
   11  C  1  X   -0.000000   0.000000  -0.000000  -0.000000  -1.189969
   12  C  1  Y   -0.000000   0.000000  -0.000000  -1.189969   0.000000
   13  C  1  Z    0.109272  -1.345938  -9.611918  -0.000000   0.000000
   14  C  1  S  117.935646 231.078377  56.054722  -0.000000   0.000000
   15  C  1  X   -0.000000   0.000000  -0.000000  -0.000000   2.252037
   16  C  1  Y   -0.000000   0.000000  -0.000000   2.252037   0.000000
   17  C  1  Z  -17.453985 -86.794407  -9.387614  -0.000000   0.000000
   18  C  1 XX    0.041986  -0.012327  -0.008357  -0.000000   0.000000
   19  C  1 YY    0.041986  -0.012327  -0.008357  -0.000000   0.000000
   20  C  1 ZZ   -0.083972   0.024653   0.016714  -0.000000   0.000000
   21  C  1 XY   -0.000000   0.000000  -0.000000  -0.000000   0.000000
   22  C  1 XZ   -0.000000   0.000000  -0.000000  -0.000000   0.002846
   23  C  1 YZ   -0.000000   0.000000  -0.000000   0.002846   0.000000
   24  C  2  S   -0.005027   0.013360  -0.034293  -0.000000   0.000000
   25  C  2  S   -0.010397   0.024375  -0.061227  -0.000000   0.000000
   26  C  2  X   -0.000000   0.000000  -0.000000  -0.000000   0.165349
   27  C  2  Y   -0.000000   0.000000  -0.000000   0.165349   0.000000
   28  C  2  Z    0.052702  -0.056389  -0.018144  -0.000000   0.000000
   29  C  2  S   -0.019931  -0.109860   0.170112  -0.000000   0.000000
   30  C  2  X   -0.000000   0.000000  -0.000000  -0.000000   0.230689
   31  C  2  Y   -0.000000   0.000000  -0.000000   0.230689   0.000000
   32  C  2  Z    0.053649  -0.047227   0.061073  -0.000000   0.000000
   33  C  2  S    0.618616   3.238808   0.608093  -0.000000   0.000000
   34  C  2  X   -0.000000   0.000000  -0.000000  -0.000000   1.189969
   35  C  2  Y   -0.000000   0.000000  -0.000000   1.189969   0.000000
   36  C  2  Z    0.109272   1.345938  -9.611918  -0.000000   0.000000
   37  C  2  S -117.935646 231.078377 -56.054722  -0.000000   0.000000
   38  C  2  X   -0.000000   0.000000  -0.000000  -0.000000  -2.252037
   39  C  2  Y   -0.000000   0.000000  -0.000000  -2.252037   0.000000
   40  C  2  Z  -17.453985  86.794407  -9.387614  -0.000000   0.000000
   41  C  2 XX   -0.041986  -0.012327   0.008357  -0.000000   0.000000
   42  C  2 YY   -0.041986  -0.012327   0.008357  -0.000000   0.000000
   43  C  2 ZZ    0.083972   0.024653  -0.016714  -0.000000   0.000000
   44  C  2 XY   -0.000000   0.000000  -0.000000  -0.000000   0.000000
   45  C  2 XZ   -0.000000   0.000000  -0.000000  -0.000000   0.002846
   46  C  2 YZ   -0.000000   0.000000  -0.000000   0.002846   0.000000
   47  C  3  S    0.004631  -0.019770  -0.038910  -0.000000   0.000000
   48  C  3  S    0.005165  -0.033779  -0.068796  -0.000000   0.000000
   49  C  3  X   -0.000000   0.000000  -0.000000  -0.000000   0.101277
   50  C  3  Y   -0.000000   0.000000  -0.000000   0.101277   0.000000
   51  C  3  Z   -0.054047  -0.058548  -0.029998  -0.000000   0.000000
   52  C  3  S    0.001253   0.095325   0.156110  -0.000000   0.000000
   53  C  3  X   -0.000000   0.000000  -0.000000  -0.000000   0.088018
   54  C  3  Y   -0.000000   0.000000  -0.000000   0.088018   0.000000
   55  C  3  Z    0.014966  -0.078945  -0.050539  -0.000000   0.000000
   56  C  3  S    0.232523  -1.552681  -6.254786  -0.000000   0.000000
   57  C  3  X   -0.000000   0.000000  -0.000000  -0.000000   0.958688
   58  C  3  Y   -0.000000   0.000000  -0.000000   0.958688   0.000000
   59  C  3  Z   -0.547905  -2.446459  -5.149117  -0.000000   0.000000
   60  C  3  S  -93.249537-223.186041 -42.157594  -0.000000   0.000000
   61  C  3  X   -0.000000   0.000000  -0.000000  -0.000000  -1.311863
   62  C  3  Y   -0.000000   0.000000  -0.000000  -1.311863   0.000000
   63  C  3  Z  -23.623463 -46.825873 -18.621527  -0.000000   0.000000
   64  C  3 XX   -0.003002   0.028832  -0.000938  -0.000000   0.000000
   65  C  3 YY   -0.003002   0.028832  -0.000938  -0.000000   0.000000
   66  C  3 ZZ    0.006004  -0.057665   0.001875  -0.000000   0.000000
   67  C  3 XY   -0.000000   0.000000  -0.000000  -0.000000   0.000000
   68  C  3 XZ   -0.000000   0.000000  -0.000000  -0.000000  -0.049543
   69  C  3 YZ   -0.000000   0.000000  -0.000000  -0.049543   0.000000
   70  C  4  S   -0.004631  -0.019770   0.038910  -0.000000   0.000000
   71  C  4  S   -0.005165  -0.033779   0.068796  -0.000000   0.000000
   72  C  4  X   -0.000000   0.000000  -0.000000  -0.000000  -0.101277
   73  C  4  Y   -0.000000   0.000000  -0.000000  -0.101277   0.000000
   74  C  4  Z   -0.054047   0.058548  -0.029998  -0.000000   0.000000
   75  C  4  S   -0.001253   0.095325  -0.156110  -0.000000   0.000000
   76  C  4  X   -0.000000   0.000000  -0.000000  -0.000000  -0.088018
   77  C  4  Y   -0.000000   0.000000  -0.000000  -0.088018   0.000000
   78  C  4  Z    0.014966   0.078945  -0.050539  -0.000000   0.000000
   79  C  4  S   -0.232523  -1.552681   6.254786  -0.000000   0.000000
   80  C  4  X   -0.000000   0.000000  -0.000000  -0.000000  -0.958688
   81  C  4  Y   -0.000000   0.000000  -0.000000  -0.958688   0.000000
   82  C  4  Z   -0.547905   2.446459  -5.149117  -0.000000   0.000000
   83  C  4  S   93.249537-223.186041  42.157594  -0.000000   0.000000
[...]
   11. BD ( 3) C  2- C  4      17. BD*( 3) C  1- C  3     18.55    0.73   0.104
   11. BD ( 3) C  2- C  4      25. RY ( 3) C  1            2.33    1.37   0.050
   12. BD ( 1) C  3- H  5      14. BD*( 1) C  1- C  2      5.60    1.63   0.085
   12. BD ( 1) C  3- H  5      15. BD*( 1) C  1- C  3     10.21    2.10   0.131
   12. BD ( 1) C  3- H  5      23. RY ( 1) C  1            6.89    3.43   0.137
   12. BD ( 1) C  3- H  5      28. RY ( 6) C  1            0.85    4.15   0.053
   12. BD ( 1) C  3- H  5      30. RY ( 8) C  1            2.20   12.77   0.150
   12. BD ( 1) C  3- H  5      33. RY (11) C  1            0.72   10.52   0.078
   12. BD ( 1) C  3- H  5      35. RY (13) C  1            1.39    7.59   0.092
   12. BD ( 1) C  3- H  5      59. RY ( 3) C  3            1.29    3.72   0.062
   12. BD ( 1) C  3- H  5      62. RY ( 6) C  3            1.59    9.07   0.107
   12. BD ( 1) C  3- H  5      67. RY (11) C  3            1.35   11.15   0.109
   12. BD ( 1) C  3- H  5      72. RY (16) C  3            1.08    4.36   0.061
   12. BD ( 1) C  3- H  5      93. RY ( 5) H  5            1.38    2.27   0.050
   13. BD ( 1) C  4- H  6      14. BD*( 1) C  1- C  2      5.60    1.63   0.085
   13. BD ( 1) C  4- H  6      18. BD*( 1) C  2- C  4     10.21    2.10   0.131
   13. BD ( 1) C  4- H  6      40. RY ( 1) C  2            6.89    3.43   0.137
   13. BD ( 1) C  4- H  6      45. RY ( 6) C  2            0.85    4.15   0.053
   13. BD ( 1) C  4- H  6      47. RY ( 8) C  2            2.20   12.76   0.150
   13. BD ( 1) C  4- H  6      50. RY (11) C  2            0.72   10.54   0.078
   13. BD ( 1) C  4- H  6      52. RY (13) C  2            1.38    7.59   0.091
   13. BD ( 1) C  4- H  6      75. RY ( 3) C  4            1.29    3.72   0.062
   13. BD ( 1) C  4- H  6      78. RY ( 6) C  4            1.59    9.06   0.107
   13. BD ( 1) C  4- H  6      83. RY (11) C  4            1.35   11.15   0.109
   13. BD ( 1) C  4- H  6      88. RY (16) C  4            1.08    4.36   0.061
   13. BD ( 1) C  4- H  6      99. RY ( 5) H  6            1.38    2.27   0.050


 NATURAL BOND ORBITALS (Summary):

                                                     Principal Delocalizations
           NBO                 Occupancy    Energy   (geminal,vicinal,remote)
 ===============================================================================
 Molecular unit  1  (C4H2)
 ------ Lewis --------------------------------------
    1. CR ( 1) C  1             2.00000   -11.26285
    2. CR ( 1) C  2             2.00000   -11.26285
    3. CR ( 1) C  3             2.00000   -11.25256
    4. CR ( 1) C  4             2.00000   -11.25256
    5. BD ( 1) C  1- C  2       1.97558    -0.86666  15(g),18(g),59(v),75(v)
                                                     21(v),22(v),47(g),30(g)
                                                     72(v),88(v),28(g),45(g)
                                                     93(r),99(r)
    6. BD ( 1) C  1- C  3       1.97979    -0.97817  14(g),21(g),18(v),43(v)
                                                     89(v),90(v)
    7. BD ( 2) C  1- C  3       1.95843    -0.42076  19(v),41(v)
    8. BD ( 3) C  1- C  3       1.95843    -0.42076  20(v),42(v)
    9. BD ( 1) C  2- C  4       1.97979    -0.97817  14(g),22(g),15(v),26(v)
                                                     95(v),96(v)
   10. BD ( 2) C  2- C  4       1.95843    -0.42076  16(v),24(v)
   11. BD ( 3) C  2- C  4       1.95843    -0.42076  17(v),25(v)
   12. BD ( 1) C  3- H  5       1.98863    -0.74815  15(g),23(v),14(v),30(v)
                                                     62(g),35(v),93(g),67(g)
                                                     59(g),72(g),28(v),33(v)
   13. BD ( 1) C  4- H  6       1.98863    -0.74815  18(g),40(v),14(v),47(v)
                                                     78(g),52(v),99(g),83(g)
                                                     75(g),88(g),45(v),50(v)
 ------ non-Lewis ----------------------------------
   14. BD*( 1) C  1- C  2       0.02845     0.87711
   15. BD*( 1) C  1- C  3       0.01800     1.35589
   16. BD*( 2) C  1- C  3       0.03886     0.31351
   17. BD*( 3) C  1- C  3       0.03886     0.31351
   18. BD*( 1) C  2- C  4       0.01800     1.35589
   19. BD*( 2) C  2- C  4       0.03886     0.31351
   20. BD*( 3) C  2- C  4       0.03886     0.31351
   21. BD*( 1) C  3- H  5       0.00676     0.71487
   22. BD*( 1) C  4- H  6       0.00676     0.71487
   23. RY ( 1) C  1             0.00244     2.68471
   24. RY ( 2) C  1             0.00203     0.94732
   25. RY ( 3) C  1             0.00203     0.94732
   26. RY ( 4) C  1             0.00068     3.23236
   27. RY ( 5) C  1             0.00009     3.27790
   28. RY ( 6) C  1             0.00000     3.39760
   29. RY ( 7) C  1             0.00000     1.58790
   30. RY ( 8) C  1             0.00000    12.02074
   31. RY ( 9) C  1             0.00000     1.95673
   32. RY (10) C  1             0.00000     1.58790
   33. RY (11) C  1             0.00000     9.77623
   34. RY (12) C  1             0.00000     1.95673
   35. RY (13) C  1             0.00000     6.84185
   36. RY (14) C  1             0.00000     1.62301
   37. RY (15) C  1             0.00000     1.91964
   38. RY (16) C  1             0.00000     1.91964
   39. RY (17) C  1             0.00000     1.62301
   40. RY ( 1) C  2             0.00244     2.68471
   41. RY ( 2) C  2             0.00203     0.94732
   42. RY ( 3) C  2             0.00203     0.94732
   43. RY ( 4) C  2             0.00068     3.23236
   44. RY ( 5) C  2             0.00009     3.27790
   45. RY ( 6) C  2             0.00000     3.39761
   46. RY ( 7) C  2             0.00000     1.58790
   47. RY ( 8) C  2             0.00000    12.00893
   48. RY ( 9) C  2             0.00000     1.95673
   49. RY (10) C  2             0.00000     1.58790
   50. RY (11) C  2             0.00000     9.79207
   51. RY (12) C  2             0.00000     1.95673
   52. RY (13) C  2             0.00000     6.83781
   53. RY (14) C  2             0.00000     1.62301
   54. RY (15) C  2             0.00000     1.91964
   55. RY (16) C  2             0.00000     1.91964
   56. RY (17) C  2             0.00000     1.62301
   57. RY ( 1) C  3             0.00058     0.49140
   58. RY ( 2) C  3             0.00058     0.49140
   59. RY ( 3) C  3             0.00051     2.97660
   60. RY ( 4) C  3             0.00008     1.66104
   61. RY ( 5) C  3             0.00002     0.73488
   62. RY ( 6) C  3             0.00000     8.31929
   63. RY ( 7) C  3             0.00000     0.98388
   64. RY ( 8) C  3             0.00000     2.78345
   65. RY ( 9) C  3             0.00000     0.98388
   66. RY (10) C  3             0.00000     2.78345
   67. RY (11) C  3             0.00000    10.39935
   68. RY (12) C  3             0.00000     1.61953
   69. RY (13) C  3             0.00000     2.12064
   70. RY (14) C  3             0.00000     2.12064
   71. RY (15) C  3             0.00000     1.61953
   72. RY (16) C  3             0.00000     3.61218
   73. RY ( 1) C  4             0.00058     0.49140
   74. RY ( 2) C  4             0.00058     0.49140
   75. RY ( 3) C  4             0.00051     2.97660
   76. RY ( 4) C  4             0.00008     1.66104
   77. RY ( 5) C  4             0.00002     0.73488
   78. RY ( 6) C  4             0.00000     8.31674
   79. RY ( 7) C  4             0.00000     0.98388
   80. RY ( 8) C  4             0.00000     2.78345
   81. RY ( 9) C  4             0.00000     0.98388
   82. RY (10) C  4             0.00000     2.78345
   83. RY (11) C  4             0.00000    10.40191
   84. RY (12) C  4             0.00000     1.61953
   85. RY (13) C  4             0.00000     2.12064
   86. RY (14) C  4             0.00000     2.12064
   87. RY (15) C  4             0.00000     1.61953
   88. RY (16) C  4             0.00000     3.61218
   89. RY ( 1) H  5             0.00083     2.43182
   90. RY ( 2) H  5             0.00013     1.27754
   91. RY ( 3) H  5             0.00010     1.90174
   92. RY ( 4) H  5             0.00010     1.90174
   93. RY ( 5) H  5             0.00000     1.52598
   94. RY ( 6) H  5             0.00000     2.06209
   95. RY ( 1) H  6             0.00083     2.43182
   96. RY ( 2) H  6             0.00013     1.27754
   97. RY ( 3) H  6             0.00010     1.90174
   98. RY ( 4) H  6             0.00010     1.90174
   99. RY ( 5) H  6             0.00000     1.52598
  100. RY ( 6) H  6             0.00000     2.06209
          -------------------------------
                 Total Lewis   25.74615  ( 99.0237%)
           Valence non-Lewis    0.23343  (  0.8978%)
           Rydberg non-Lewis    0.02042  (  0.0785%)
          -------------------------------
               Total unit  1   26.00000  (100.0000%)
              Charge unit  1    0.00000

 $CHOOSE
   BOND S 1 2 T 1 3 T 2 4 S 3 5 S 4 6 END
 $END

 NBO analysis completed in 0.17 CPU seconds (0 wall seconds)
 Maximum scratch memory used by NBO was 478178 words (3.65 MB)

 LEWIS: Delete all non-Lewis NBOs
 Deletion of the following orbitals from the NBO Fock matrix:
   14  15  16  17  18  19  20  21  22  23  24  25  26  27  28  29  30  31  32  33
   34  35  36  37  38  39  40  41  42  43  44  45  46  47  48  49  50  51  52  53
   54  55  56  57  58  59  60  61  62  63  64  65  66  67  68  69  70  71  72  73
   74  75  76  77  78  79  80  81  82  83  84  85  86  87  88  89  90  91  92  93
   94  95  96  97  98  99 100

 Orbital occupancies:

       Orbital                         No deletions  This deletion    Change
 ------------------------------------------------------------------------------
    1. CR ( 1) C  1                      2.00000        2.00000       0.00000
    2. CR ( 1) C  2                      2.00000        2.00000       0.00000
    3. CR ( 1) C  3                      2.00000        2.00000       0.00000
    4. CR ( 1) C  4                      2.00000        2.00000       0.00000
    5. BD ( 1) C  1- C  2                1.97558        2.00000       0.02442
    6. BD ( 1) C  1- C  3                1.97979        2.00000       0.02021
    7. BD ( 2) C  1- C  3                1.95843        2.00000       0.04157
    8. BD ( 3) C  1- C  3                1.95843        2.00000       0.04157
    9. BD ( 1) C  2- C  4                1.97979        2.00000       0.02021
   10. BD ( 2) C  2- C  4                1.95843        2.00000       0.04157
   11. BD ( 3) C  2- C  4                1.95843        2.00000       0.04157
   12. BD ( 1) C  3- H  5                1.98863        2.00000       0.01137
   13. BD ( 1) C  4- H  6                1.98863        2.00000       0.01137
   14. BD*( 1) C  1- C  2                0.02845        0.00000      -0.02845
   15. BD*( 1) C  1- C  3                0.01800        0.00000      -0.01800
   16. BD*( 2) C  1- C  3                0.03886        0.00000      -0.03886
   17. BD*( 3) C  1- C  3                0.03886        0.00000      -0.03886
   18. BD*( 1) C  2- C  4                0.01800        0.00000      -0.01800
   19. BD*( 2) C  2- C  4                0.03886        0.00000      -0.03886
   20. BD*( 3) C  2- C  4                0.03886        0.00000      -0.03886
   21. BD*( 1) C  3- H  5                0.00676        0.00000      -0.00676
   22. BD*( 1) C  4- H  6                0.00676        0.00000      -0.00676
   23. RY ( 1) C  1                      0.00244        0.00000      -0.00244
   24. RY ( 2) C  1                      0.00203        0.00000      -0.00203
   25. RY ( 3) C  1                      0.00203        0.00000      -0.00203
   26. RY ( 4) C  1                      0.00068        0.00000      -0.00068
   27. RY ( 5) C  1                      0.00009        0.00000      -0.00009
   28. RY ( 6) C  1                      0.00000        0.00000       0.00000
   29. RY ( 7) C  1                      0.00000        0.00000       0.00000
   30. RY ( 8) C  1                      0.00000        0.00000       0.00000
   31. RY ( 9) C  1                      0.00000        0.00000       0.00000
   32. RY (10) C  1                      0.00000        0.00000       0.00000
   33. RY (11) C  1                      0.00000        0.00000       0.00000
   34. RY (12) C  1                      0.00000        0.00000       0.00000
   35. RY (13) C  1                      0.00000        0.00000       0.00000
   36. RY (14) C  1                      0.00000        0.00000       0.00000
   37. RY (15) C  1                      0.00000        0.00000       0.00000
   38. RY (16) C  1                      0.00000        0.00000       0.00000
   39. RY (17) C  1                      0.00000        0.00000       0.00000
   40. RY ( 1) C  2                      0.00244        0.00000      -0.00244
   41. RY ( 2) C  2                      0.00203        0.00000      -0.00203
   42. RY ( 3) C  2                      0.00203        0.00000      -0.00203
   43. RY ( 4) C  2                      0.00068        0.00000      -0.00068
   44. RY ( 5) C  2                      0.00009        0.00000      -0.00009
   45. RY ( 6) C  2                      0.00000        0.00000       0.00000
   46. RY ( 7) C  2                      0.00000        0.00000       0.00000
   47. RY ( 8) C  2                      0.00000        0.00000       0.00000
   48. RY ( 9) C  2                      0.00000        0.00000       0.00000
   49. RY (10) C  2                      0.00000        0.00000       0.00000
   50. RY (11) C  2                      0.00000        0.00000       0.00000
   51. RY (12) C  2                      0.00000        0.00000       0.00000
   52. RY (13) C  2                      0.00000        0.00000       0.00000
   53. RY (14) C  2                      0.00000        0.00000       0.00000
   54. RY (15) C  2                      0.00000        0.00000       0.00000
   55. RY (16) C  2                      0.00000        0.00000       0.00000
   56. RY (17) C  2                      0.00000        0.00000       0.00000
   57. RY ( 1) C  3                      0.00058        0.00000      -0.00058
   58. RY ( 2) C  3                      0.00058        0.00000      -0.00058
   59. RY ( 3) C  3                      0.00051        0.00000      -0.00051
   60. RY ( 4) C  3                      0.00008        0.00000      -0.00008
   61. RY ( 5) C  3                      0.00002        0.00000      -0.00002
   62. RY ( 6) C  3                      0.00000        0.00000       0.00000
   63. RY ( 7) C  3                      0.00000        0.00000       0.00000
   64. RY ( 8) C  3                      0.00000        0.00000       0.00000
   65. RY ( 9) C  3                      0.00000        0.00000       0.00000
   66. RY (10) C  3                      0.00000        0.00000       0.00000
   67. RY (11) C  3                      0.00000        0.00000       0.00000
   68. RY (12) C  3                      0.00000        0.00000       0.00000
   69. RY (13) C  3                      0.00000        0.00000       0.00000
   70. RY (14) C  3                      0.00000        0.00000       0.00000
   71. RY (15) C  3                      0.00000        0.00000       0.00000
   72. RY (16) C  3                      0.00000        0.00000       0.00000
   73. RY ( 1) C  4                      0.00058        0.00000      -0.00058
   74. RY ( 2) C  4                      0.00058        0.00000      -0.00058
   75. RY ( 3) C  4                      0.00051        0.00000      -0.00051
   76. RY ( 4) C  4                      0.00008        0.00000      -0.00008
   77. RY ( 5) C  4                      0.00002        0.00000      -0.00002
   78. RY ( 6) C  4                      0.00000        0.00000       0.00000
   79. RY ( 7) C  4                      0.00000        0.00000       0.00000
   80. RY ( 8) C  4                      0.00000        0.00000       0.00000
   81. RY ( 9) C  4                      0.00000        0.00000       0.00000
   82. RY (10) C  4                      0.00000        0.00000       0.00000
   83. RY (11) C  4                      0.00000        0.00000       0.00000
   84. RY (12) C  4                      0.00000        0.00000       0.00000
   85. RY (13) C  4                      0.00000        0.00000       0.00000
   86. RY (14) C  4                      0.00000        0.00000       0.00000
   87. RY (15) C  4                      0.00000        0.00000       0.00000
   88. RY (16) C  4                      0.00000        0.00000       0.00000
   89. RY ( 1) H  5                      0.00083        0.00000      -0.00083
   90. RY ( 2) H  5                      0.00013        0.00000      -0.00013
   91. RY ( 3) H  5                      0.00010        0.00000      -0.00010
   92. RY ( 4) H  5                      0.00010        0.00000      -0.00010
   93. RY ( 5) H  5                      0.00000        0.00000       0.00000
   94. RY ( 6) H  5                      0.00000        0.00000       0.00000
   95. RY ( 1) H  6                      0.00083        0.00000      -0.00083
   96. RY ( 2) H  6                      0.00013        0.00000      -0.00013
   97. RY ( 3) H  6                      0.00010        0.00000      -0.00010
   98. RY ( 4) H  6                      0.00010        0.00000      -0.00010
   99. RY ( 5) H  6                      0.00000        0.00000       0.00000
  100. RY ( 6) H  6                      0.00000        0.00000       0.00000

 NEXT STEP:  Perform one SCF cycle to evaluate the energy of the new density
             matrix constructed from the deleted NBO Fock matrix.

 ------------------------------------------------------------------------------

          --------------------------
                 RHF SCF CALCULATION
          --------------------------
     DENSITY MATRIX CONV=  1.00E-05

 ITER EX DEM     TOTAL ENERGY        E CHANGE  DENSITY CHANGE    DIIS ERROR
   1  0  0     -152.2767128575  -152.2767128575  25.580528147   0.000000000

 SCF IS UNCONVERGED, TOO MANY ITERATIONS
     TIME TO FORM FOCK OPERATORS=       0.0 SECONDS (       0.0 SEC/ITER)
     TIME TO SOLVE SCF EQUATIONS=       0.0 SECONDS (       0.0 SEC/ITER)

 FINAL RHF ENERGY IS        0.0000000000 AFTER   1 ITERATIONS
 ...... END OF RHF CALCULATION ......
 STEP CPU TIME =     0.28 TOTAL CPU TIME =          0.9 (      0.0 MIN)
 TOTAL WALL CLOCK TIME=          0.9 SECONDS, CPU UTILIZATION IS   102.27%

 ------------------------------------------------------------------------------
   Energy of deletion :       -152.276712858
     Total SCF energy :       -152.537635573
                          -------------------
        Energy change :          0.260923 a.u.,         163.731 kcal/mol
 ------------------------------------------------------------------------------

 ..... done with NBO analysis .....
 STEP CPU TIME =     0.01 TOTAL CPU TIME =          0.9 (      0.0 MIN)
 TOTAL WALL CLOCK TIME=          0.9 SECONDS, CPU UTILIZATION IS   101.11%
               580000  WORDS OF DYNAMIC MEMORY USED
 EXECUTION OF GAMESS TERMINATED NORMALLY Thu Apr 18 14:29:25 2019
 DDI: 263640 bytes (0.3 MB / 0 MWords) used by master data server.

 ----------------------------------------
 CPU timing information for all processes
 ========================================
 0: 0.663 + 0.53 = 0.716
 ----------------------------------------
Note: The following floating-point exceptions are signalling: IEEE_UNDERFLOW_FLAG IEEE_DENORMAL
 ddikick.x: exited gracefully.
unset echo
----- accounting info -----
Files used on the master node neutron were:
-rw-rw-r-- 1 ericg ericg   349500 Apr 18 14:29 /home/ericg/scr/c4h2.dat
-rw-rw-r-- 1 ericg ericg      342 Apr 18 14:29 /home/ericg/scr/c4h2.F05
-rw-rw-r-- 1 ericg ericg 23582096 Apr 18 14:29 /home/ericg/scr/c4h2.F08
-rw-rw-r-- 1 ericg ericg  2257680 Apr 18 14:29 /home/ericg/scr/c4h2.F10
ls: No match.
ls: No match.
ls: No match.
Thu Apr 18 14:29:28 EDT 2019
0.098u 0.033s 0:04.04 2.9%	0+0k 8+16io 0pf+0w
