----- GAMESS execution script 'rungms' -----
This job is running on host neutron
under operating system Linux at Thu Apr 18 14:30:31 EDT 2019
Available scratch disk space (Kbyte units) at beginning of the job is
Filesystem     1K-blocks      Used Available Use% Mounted on
/dev/sda2      236432240 131182040  93170432  59% /
GAMESS temporary binary files will be written to /home/ericg/scr
GAMESS supplementary output files will be written to /home/ericg/scr
Copying input file h2nao_b3lyp.inp to your run's scratch directory...
cp -i h2nao_b3lyp.inp /home/ericg/scr/h2nao_b3lyp.F05
unset echo
/opt/gamess/ddikick.x /opt/gamess/gamess.00.x h2nao_b3lyp -ddi 1 1 neutron -scr /home/ericg/scr

 Distributed Data Interface kickoff program.
 Initiating 1 compute processes on 1 nodes to run the following command:
 /opt/gamess/gamess.00.x h2nao_b3lyp 

          ******************************************************
          *         GAMESS VERSION = 30 SEP 2018 (R3)         *
          *             FROM IOWA STATE UNIVERSITY             *
          * M.W.SCHMIDT, K.K.BALDRIDGE, J.A.BOATZ, S.T.ELBERT, *
          *   M.S.GORDON, J.H.JENSEN, S.KOSEKI, N.MATSUNAGA,   *
          *          K.A.NGUYEN, S.J.SU, T.L.WINDUS,           *
          *       TOGETHER WITH M.DUPUIS, J.A.MONTGOMERY       *
          *         J.COMPUT.CHEM.  14, 1347-1363(1993)        *
          **************** 64 BIT LINUX VERSION ****************

  SINCE 1993, STUDENTS AND POSTDOCS WORKING AT IOWA STATE UNIVERSITY
  AND ALSO IN THEIR VARIOUS JOBS AFTER LEAVING ISU HAVE MADE IMPORTANT
  CONTRIBUTIONS TO THE CODE:
     IVANA ADAMOVIC, CHRISTINE AIKENS, YURI ALEXEEV, POOJA ARORA,
     ANDREY ASADCHEV, ROB BELL, PRADIPTA BANDYOPADHYAY, JONATHAN BENTZ,
     BRETT BODE, KURT BRORSEN, CALEB CARLIN, GALINA CHABAN, WEI CHEN,
     CHEOL HO CHOI, PAUL DAY, ALBERT DEFUSCO, NUWAN DESILVA, TIM DUDLEY,
     DMITRI FEDOROV, ALEX FINDLATER, GRAHAM FLETCHER, MARK FREITAG,
     KURT GLAESEMANN, ANASTASIA GUNINA,
     DAN KEMP, GRANT MERRILL, NORIYUKI MINEZAWA, JONATHAN MULLIN,
     TAKESHI NAGATA, SEAN NEDD, HEATHER NETZLOFF, BOSILJKA NJEGIC, RYAN OLSON,
     MIKE PAK, BUU PHAM,
     SPENCER PRUITT, LUKE ROSKOP, JIM SHOEMAKER, LYUDMILA SLIPCHENKO,
     TONY SMITH, SAROM SOK LEANG, JIE SONG, TETSUYA TAKETSUGU, SIMON WEBB,
     PENG XU, SOOHAENG YOO, FEDERICO ZAHARIEV

  ADDITIONAL CODE HAS BEEN PROVIDED BY COLLABORATORS IN OTHER GROUPS:
     IOWA STATE UNIVERSITY:
          JOE IVANIC, AARON WEST, LAIMUTIS BYTAUTAS, KLAUS RUEDENBERG
     UNIVERSITY OF TOKYO: KIMIHIKO HIRAO, TAKAHITO NAKAJIMA,
          TAKAO TSUNEDA, MUNEAKI KAMIYA, SUSUMU YANAGISAWA,
          KIYOSHI YAGI, MAHITO CHIBA, SEIKEN TOKURA, NAOAKI KAWAKAMI
     UNIVERSITY OF AARHUS: FRANK JENSEN
     UNIVERSITY OF IOWA: VISVALDAS KAIRYS, HUI LI
     NATIONAL INST. OF STANDARDS AND TECHNOLOGY: WALT STEVENS, DAVID GARMER
     UNIVERSITY OF PISA: BENEDETTA MENNUCCI, JACOPO TOMASI
     UNIVERSITY OF MEMPHIS: HENRY KURTZ, PRAKASHAN KORAMBATH
     UNIVERSITY OF ALBERTA: TOBY ZENG, MARIUSZ KLOBUKOWSKI
     UNIVERSITY OF NEW ENGLAND: MARK SPACKMAN
     MIE UNIVERSITY: HIROAKI UMEDA
     NAT. INST. OF ADVANCED INDUSTRIAL SCIENCE AND TECHNOLOGY: KAZUO KITAURA
     MICHIGAN STATE UNIVERSITY:
          KAROL KOWALSKI, MARTA WLOCH, JEFFREY GOUR, JESSE LUTZ,
          WEI LI, JUN SHEN, J. EMILIANO DEUSTUA, PIOTR PIECUCH
     UNIVERSITY OF MINNESOTA:
          YINAN SHU
     UNIVERSITY OF SILESIA: MONIKA MUSIAL, STANISLAW KUCHARSKI
     FACULTES UNIVERSITAIRES NOTRE-DAME DE LA PAIX:
          OLIVIER QUINET, BENOIT CHAMPAGNE
     UNIVERSITY OF CALIFORNIA - SANTA BARBARA: BERNARD KIRTMAN
     INSTITUTE FOR MOLECULAR SCIENCE:
          KAZUYA ISHIMURA, MICHIO KATOUDA, AND SHIGERU NAGASE
     UNIVERSITY OF NOTRE DAME: ANNA POMOGAEVA, DAN CHIPMAN
     KYUSHU UNIVERSITY:
          HARUYUKI NAKANO,
          FENG LONG GU, JACEK KORCHOWIEC, MARCIN MAKOWSKI, AND YURIKO AOKI,
          HIROTOSHI MORI AND EISAKU MIYOSHI
     PENNSYLVANIA STATE UNIVERSITY:
          TZVETELIN IORDANOV, CHET SWALINA, JONATHAN SKONE,
          SHARON HAMMES-SCHIFFER
     WASEDA UNIVERSITY:
          MASATO KOBAYASHI, TOMOKO AKAMA, TSUGUKI TOUMA,
          TAKESHI YOSHIKAWA, YASUHIRO IKABATA, JUNJI SEINO,
          YUYA NAKAJIMA, HIROMI NAKAI
     NANJING UNIVERSITY: SHUHUA LI
     UNIVERSITY OF NEBRASKA:
          PEIFENG SU, DEJUN SI, NANDUN THELLAMUREGE, YALI WANG, HUI LI
     UNIVERSITY OF ZURICH: ROBERTO PEVERATI, KIM BALDRIDGE
     N. COPERNICUS UNIVERSITY AND JACKSON STATE UNIVERSITY:
          MARIA BARYSZ
     UNIVERSITY OF COPENHAGEN: Jimmy Kromann, CASPER STEINMANN
     TOKYO INSTITUTE OF TECHNOLOGY: HIROYA NAKATA
     NAGOYA UNIVERSITY: YOSHIO NISHIMOTO, STEPHAN IRLE
     MOSCOW STATE UNIVERSITY: VLADIMIR MIRONOV

 EXECUTION OF GAMESS BEGUN Thu Apr 18 14:30:31 2019

            ECHO OF THE FIRST FEW INPUT CARDS -
 INPUT CARD> $contrl  scftyp=uhf  runtyp=energy  mult=2  nosym=1  $end                      
 INPUT CARD> $dft  dfttyp=b3lyp  $end                                                       
 INPUT CARD> $basis  gbasis=n31  ngauss=6  ndfunc=1  npfunc=1  diffsp=.t.  diffs=.t.  $end  
 INPUT CARD> $nbo  $end                                                                     
 INPUT CARD> $del                                                                           
 INPUT CARD>   alpha neda end                                                               
 INPUT CARD>    beta neda end                                                               
 INPUT CARD> $end                                                                           
 INPUT CARD> $data                                                                          
 INPUT CARD>Na..OH2 (rhf/6-31++G**)                                                         
 INPUT CARD>Cnv 2                                                                           
 INPUT CARD>                                                                                
 INPUT CARD> Na         11.0    .0000000000    .0000000000   -.3404656616                   
 INPUT CARD> O           8.0    .0000000000    .0000000000   2.0240196206                   
 INPUT CARD> H           1.0    .0000000000    .7627333242   2.5832459068                   
 INPUT CARD> $end                                                                           
    1000000 WORDS OF MEMORY AVAILABLE

     BASIS OPTIONS
     -------------
     GBASIS=N31          IGAUSS=       6      POLAR=POPN31  
     NDFUNC=       1     NFFUNC=       0     DIFFSP=       T
     NPFUNC=       1      DIFFS=       T     BASNAM=        


     RUN TITLE
     ---------
 Na..OH2 (rhf/6-31++G**)                                                         

 THE POINT GROUP OF THE MOLECULE IS CNV     
 THE ORDER OF THE PRINCIPAL AXIS IS     2

 ATOM      ATOMIC                      COORDINATES (BOHR)
           CHARGE         X                   Y                   Z
 NA         11.0     0.0000000000        0.0000000000       -0.6433868087
 O           8.0     0.0000000000        0.0000000000        3.8248424767
 H           1.0    -0.0000000000       -1.4413569844        4.8816269228
 H           1.0     0.0000000000        1.4413569844        4.8816269228

          INTERNUCLEAR DISTANCES (ANGS.)
          ------------------------------

                1 NA         2 O          3 H          4 H     

   1 NA      0.0000000    2.3644853 *  3.0215644    3.0215644  
   2 O       2.3644853 *  0.0000000    0.9457781 *  0.9457781 *
   3 H       3.0215644    0.9457781 *  0.0000000    1.5254666 *
   4 H       3.0215644    0.9457781 *  1.5254666 *  0.0000000  

  * ... LESS THAN  3.000


     ATOMIC BASIS SET
     ----------------
 THE CONTRACTED PRIMITIVE FUNCTIONS HAVE BEEN UNNORMALIZED
 THE CONTRACTED BASIS FUNCTIONS ARE NOW NORMALIZED TO UNITY

  SHELL TYPE  PRIMITIVE        EXPONENT          CONTRACTION COEFFICIENT(S)

 NA        

      1   S       1          9993.2000000    0.001937659277
      1   S       2          1499.8900000    0.014806994478
      1   S       3           341.9510000    0.072705472884
      1   S       4            94.6796000    0.252628905780
      1   S       5            29.7345000    0.493241816042
      1   S       6            10.0063000    0.313168883201

      2   L       7           150.9630000   -0.003542083504    0.005001659710
      2   L       8            35.5878000   -0.043958843482    0.035510897939
      2   L       9            11.1683000   -0.109752108561    0.142824991711
      2   L      10             3.9020100    0.187398185364    0.338619980347
      2   L      11             1.3817700    0.646699639678    0.451578973792
      2   L      12             0.4663820    0.306058302735    0.273270984140

      3   L      13             0.4979660   -0.248503159333   -0.023022500428
      3   L      14             0.0843529   -0.131704084445    0.950359017650
      3   L      15             0.0666350    1.233520790897    0.059857901112

      4   L      16             0.0259544    1.000000000000    1.000000000000

      5   L      17             0.0076000    1.000000000000    1.000000000000

      6   D      18             0.1750000    1.000000000000

 O         

      7   S      19          5484.6716600    0.001831074430
      7   S      20           825.2349460    0.013950172200
      7   S      21           188.0469580    0.068445078098
      7   S      22            52.9645000    0.232714335992
      7   S      23            16.8975704    0.470192897984
      7   S      24             5.7996353    0.358520852987

      8   L      25            15.5396162   -0.110777549525    0.070874268231
      8   L      26             3.5999336   -0.148026262701    0.339752839147
      8   L      27             1.0137618    1.130767015354    0.727158577316

      9   L      28             0.2700058    1.000000000000    1.000000000000

     10   L      29             0.0845000    1.000000000000    1.000000000000

     11   D      30             0.8000000    1.000000000000

 H         

     16   S      31            18.7311370    0.033494604338
     16   S      32             2.8253944    0.234726953484
     16   S      33             0.6401217    0.813757326146

     17   S      34             0.1612778    1.000000000000

     18   S      35             0.0360000    1.000000000000

     19   P      36             1.1000000    1.000000000000

 TOTAL NUMBER OF BASIS SET SHELLS             =   19
 NUMBER OF CARTESIAN GAUSSIAN BASIS FUNCTIONS =   54
 NUMBER OF ELECTRONS                          =   21
 CHARGE OF MOLECULE                           =    0
 SPIN MULTIPLICITY                            =    2
 NUMBER OF OCCUPIED ORBITALS (ALPHA)          =   11
 NUMBER OF OCCUPIED ORBITALS (BETA )          =   10
 TOTAL NUMBER OF ATOMS                        =    4
 THE NUCLEAR REPULSION ENERGY IS       32.8466795311

 *** WARNING ***
 KEYWORD DFTTYP IN $DFT IS NOW OBSOLETE.
 PLEASE ENTER DFTTYP IN THE $CONTRL GROUP IN FUTURE INPUT FILES.


     LEBEDEV GRID-BASED DFT OPTIONS
     ------------------------------
     DFTTYP=B3LYP   
     NRAD  =      96     NLEB  =     302
     NRAD0 =      24     NLEB0 =     110
     SWOFF =    5.00E-03 (PURE SCF -> DFT)
     SWITCH=    3.00E-04 (COARSE -> TIGHT GRID)
     THRESH=    0.00E+00 GTHRE=    1.00E+00

 GRIMME'S EMPIRICAL DISPERSION CORRECTION= F

     $CONTRL OPTIONS
     ---------------
 SCFTYP=UHF          RUNTYP=ENERGY       EXETYP=RUN     
 MPLEVL=       0     CITYP =NONE         CCTYP =NONE         VBTYP =NONE    
 DFTTYP=B3LYP        TDDFT =NONE    
 MULT  =       2     ICHARG=       0     NZVAR =       0     COORD =UNIQUE  
 PP    =NONE         RELWFN=NONE         LOCAL =NONE         NUMGRD=       F
 ISPHER=      -1     NOSYM =       1     MAXIT =      30     UNITS =ANGS    
 PLTORB=       F     MOLPLT=       F     AIMPAC=       F     FRIEND=        
 NPRINT=       7     IREST =       0     GEOM  =INPUT   
 NORMF =       0     NORMP =       0     ITOL  =      20     ICUT  =       9
 INTTYP=BEST         GRDTYP=BEST         QMTTOL= 1.0E-06

     $SYSTEM OPTIONS
     ---------------
  REPLICATED MEMORY=     1000000 WORDS (ON EVERY NODE).
 DISTRIBUTED MEMDDI=           0 MILLION WORDS IN AGGREGATE,
 MEMDDI DISTRIBUTED OVER   1 PROCESSORS IS           0 WORDS/PROCESSOR.
 TOTAL MEMORY REQUESTED ON EACH PROCESSOR=     1000000 WORDS.
 TIMLIM=      525600.00 MINUTES, OR     365.0 DAYS.
 PARALL= F  BALTYP=  DLB     KDIAG=    0  COREFL= F
 MXSEQ2=     300 MXSEQ3=     150  mem10=         0

          ----------------
          PROPERTIES INPUT
          ----------------

     MOMENTS            FIELD           POTENTIAL          DENSITY
 IEMOM =       1   IEFLD =       0   IEPOT =       0   IEDEN =       0
 WHERE =COMASS     WHERE =NUCLEI     WHERE =NUCLEI     WHERE =NUCLEI  
 OUTPUT=BOTH       OUTPUT=BOTH       OUTPUT=BOTH       OUTPUT=BOTH    
 IEMINT=       0   IEFINT=       0                     IEDINT=       0
                                                       MORB  =       0
          EXTRAPOLATION IN EFFECT
          DIIS IN EFFECT
          DIIS or SOSCF will be reset if energy rises
 ORBITAL PRINTING OPTION: NPREO=     1    54     2     1

     -------------------------------
     INTEGRAL TRANSFORMATION OPTIONS
     -------------------------------
     NWORD  =            0
     CUTOFF = 1.0E-09     MPTRAN =       0
     DIRTRF =       F     AOINTS =DUP     

          ----------------------
          INTEGRAL INPUT OPTIONS
          ----------------------
 NOPK  =       1 NORDER=       0 SCHWRZ=       F

     ------------------------------------------
     THE POINT GROUP IS C1 , NAXIS= 1, ORDER= 1
     ------------------------------------------

     DIMENSIONS OF THE SYMMETRY SUBSPACES ARE
 A   =   54

 ..... DONE SETTING UP THE RUN .....
 STEP CPU TIME =     0.00 TOTAL CPU TIME =          0.0 (      0.0 MIN)
 TOTAL WALL CLOCK TIME=          0.0 SECONDS, CPU UTILIZATION IS     0.00%

          ********************
          1 ELECTRON INTEGRALS
          ********************
 ...... END OF ONE-ELECTRON INTEGRALS ......
 STEP CPU TIME =     0.00 TOTAL CPU TIME =          0.0 (      0.0 MIN)
 TOTAL WALL CLOCK TIME=          0.0 SECONDS, CPU UTILIZATION IS     0.00%

          -------------
          GUESS OPTIONS
          -------------
          GUESS =HUCKEL            NORB  =       0          NORDER=       0
          MIX   =       F          PRTMO =       F          PUNMO =       F
          TOLZ  = 1.0E-08          TOLE  = 1.0E-05
          SYMDEN=       F          PURIFY=       F

 INITIAL GUESS ORBITALS GENERATED BY HUCKEL   ROUTINE.
 HUCKEL GUESS REQUIRES     25065 WORDS.

 SYMMETRIES FOR INITIAL GUESS ORBITALS FOLLOW.  ALPHA SET(S).
    11 ORBITALS ARE OCCUPIED (    6 CORE ORBITALS).
     7=A        8=A        9=A       10=A       11=A       12=A       13=A   
    14=A       15=A       16=A       17=A       18=A       19=A       20=A   
    21=A   

 SYMMETRIES FOR INITIAL GUESS ORBITALS FOLLOW.   BETA SET(S).
    10 ORBITALS ARE OCCUPIED (    6 CORE ORBITALS).
     7=A        8=A        9=A       10=A       11=A       12=A       13=A   
    14=A       15=A       16=A       17=A       18=A       19=A       20=A   
 ...... END OF INITIAL ORBITAL SELECTION ......
 STEP CPU TIME =     0.00 TOTAL CPU TIME =          0.0 (      0.0 MIN)
 TOTAL WALL CLOCK TIME=          0.0 SECONDS, CPU UTILIZATION IS     0.00%

                    ----------------------
                    AO INTEGRAL TECHNOLOGY
                    ----------------------
     S,P,L SHELL ROTATED AXIS INTEGRALS, REPROGRAMMED BY
        KAZUYA ISHIMURA (IMS) AND JOSE SIERRA (SYNSTAR).
     S,P,D,L SHELL ROTATED AXIS INTEGRALS PROGRAMMED BY
        KAZUYA ISHIMURA (INSTITUTE FOR MOLECULAR SCIENCE).
     S,P,D,F,G SHELL TO TOTAL QUARTET ANGULAR MOMENTUM SUM 5,
        ERIC PROGRAM BY GRAHAM FLETCHER (ELORET AND NASA ADVANCED
        SUPERCOMPUTING DIVISION, AMES RESEARCH CENTER).
     S,P,D,F,G,L SHELL GENERAL RYS QUADRATURE PROGRAMMED BY
        MICHEL DUPUIS (PACIFIC NORTHWEST NATIONAL LABORATORY).

          --------------------
          2 ELECTRON INTEGRALS
          --------------------

 THE -PK- OPTION IS OFF, THE INTEGRALS ARE NOT IN SUPERMATRIX FORM.
 STORING   15000 INTEGRALS/RECORD ON DISK, USING 12 BYTES/INTEGRAL.
 TWO ELECTRON INTEGRAL EVALUATION REQUIRES   90586 WORDS OF MEMORY.
 II,JST,KST,LST =  1  1  1  1 NREC =         1 INTLOC =    1
 II,JST,KST,LST =  2  1  1  1 NREC =         1 INTLOC =    2
 II,JST,KST,LST =  3  1  1  1 NREC =         1 INTLOC =   34
 II,JST,KST,LST =  4  1  1  1 NREC =         1 INTLOC =  214
 II,JST,KST,LST =  5  1  1  1 NREC =         1 INTLOC =  776
 II,JST,KST,LST =  6  1  1  1 NREC =         1 INTLOC = 2074
 II,JST,KST,LST =  7  1  1  1 NREC =         1 INTLOC = 5929
 II,JST,KST,LST =  8  1  1  1 NREC =         1 INTLOC = 7966
 II,JST,KST,LST =  9  1  1  1 NREC =         2 INTLOC = 3216
 II,JST,KST,LST = 10  1  1  1 NREC =         3 INTLOC = 4246
 II,JST,KST,LST = 11  1  1  1 NREC =         4 INTLOC =12214
 II,JST,KST,LST = 12  1  1  1 NREC =         7 INTLOC =14679
 II,JST,KST,LST = 13  1  1  1 NREC =         9 INTLOC = 6107
 II,JST,KST,LST = 14  1  1  1 NREC =        10 INTLOC =14884
 II,JST,KST,LST = 15  1  1  1 NREC =        12 INTLOC =10531
 II,JST,KST,LST = 16  1  1  1 NREC =        17 INTLOC =13959
 II,JST,KST,LST = 17  1  1  1 NREC =        20 INTLOC =  921
 II,JST,KST,LST = 18  1  1  1 NREC =        22 INTLOC = 5982
 II,JST,KST,LST = 19  1  1  1 NREC =        24 INTLOC =13469
 TOTAL NUMBER OF NONZERO TWO-ELECTRON INTEGRALS =              470329
         32 INTEGRAL RECORDS WERE STORED ON DISK FILE  8.
  ...... END OF TWO-ELECTRON INTEGRALS .....
 STEP CPU TIME =     0.06 TOTAL CPU TIME =          0.1 (      0.0 MIN)
 TOTAL WALL CLOCK TIME=          0.1 SECONDS, CPU UTILIZATION IS    75.00%

          ---------------------------
              U-B3LYP SCF CALCULATION
          ---------------------------

     NUCLEAR ENERGY =        32.8466795311
     MAXIT = 30     NPUNCH=  2     MULT=  2
     EXTRAP=T  DAMP=F  SHIFT=F  RSTRCT=F  DIIS=T  SOSCF=F
         DENSITY MATRIX CONVERGENCE THRESHOLD=  1.00E-05
     COARSE -> FINE DFT GRID SWITCH THRESHOLD=  3.00E-04 (SWITCH IN $DFT)
                   HF -> DFT SWITCH THRESHOLD=  5.00E-03 (SWOFF IN $DFT)
     MEMORY REQUIRED FOR UHF/ROHF ITERS=    227722 WORDS.

 DFT CODE IS SWITCHING FROM THE FINE GRID NRAD= 96,  NLEB=  302
                      TO THE COARSE GRID NRAD0= 24, NLEB0=  110

     EXCHANGE FUNCTIONAL   =B88&HFX   
     CORRELATION FUNCTIONAL=LYP88&VWN5
     DFT THRESHOLD         =.345E-07
     GRID CHANGE THRESHOLD =.300E-03
 FOR AN EULER-MACLAURIN QUADRATURE USING  96 RADIAL POINTS:
 SMALLEST GAUSSIAN PRIMITIVE EXPONENT=        0.0076000000 OF TYPE -P-
 ON ATOM NUMBER   1 HAS RADIAL NORMALIZATION=  1.000000
  LARGEST GAUSSIAN PRIMITIVE EXPONENT=     9993.2000000000 OF TYPE -S-
 ON ATOM NUMBER   1 HAS RADIAL NORMALIZATION=  0.999999
 DFT IS SWITCHED OFF, PERFORMING PURE SCF UNTIL SWOFF THRESHOLD IS REACHED.

 ITER EX      TOTAL ENERGY        E CHANGE  DENSITY CHANGE    DIIS ERROR
   1  0     -237.5357407622  -237.5357407622   0.272731240   0.752008167
          * * *   INITIATING DIIS PROCEDURE   * * *
   2  1     -237.8593994395    -0.3236586773   0.112723494   0.064817443
   3  2     -237.8781217152    -0.0187222757   0.042469771   0.038029098
   4  3     -237.8807292512    -0.0026075361   0.031207662   0.013017397
   5  4     -237.8814463594    -0.0007171082   0.012228081   0.003459460
   6  5     -237.8815185098    -0.0000721504   0.006465694   0.000773740
   7  6     -237.8815309482    -0.0000124384   0.002920704   0.000254483
 CONVERGED TO SWOFF, SO DFT CALCULATION IS NOW SWITCHED ON.
          * * *   INITIATING DIIS PROCEDURE   * * *
   8  7     -238.6696585229    -0.7881275747   0.155810171   0.080050001
   9  8     -238.6777796235    -0.0081211006   0.045339682   0.010354256
  10  9     -238.6776983434     0.0000812801   0.012978408   0.014605315
  11 10     -238.6781708208    -0.0004724774   0.006858124   0.000600520
  12 11     -238.6781751815    -0.0000043608   0.002471401   0.000180241
  13 12     -238.6781754652    -0.0000002836   0.000232403   0.000018859
 DFT CODE IS SWITCHING BACK TO THE FINE GRID
          * * *   INITIATING DIIS PROCEDURE   * * *
  14 13     -238.6459884222     0.0321870430   0.023749354   0.007741606
  15 14     -238.6461681446    -0.0001797225   0.006933778   0.005948764
  16 15     -238.6461902800    -0.0000221354   0.003412679   0.004203264
  17 16     -238.6462294890    -0.0000392090   0.000357744   0.000354658
  18 17     -238.6462297930    -0.0000003040   0.000111736   0.000027660
  19 18     -238.6462297966    -0.0000000036   0.000049580   0.000004348
  20 19     -238.6462297966    -0.0000000000   0.000016841   0.000001060
  21 20     -238.6462297966     0.0000000000   0.000001415   0.000000158

          -----------------
          DENSITY CONVERGED
          -----------------
     TIME TO FORM FOCK OPERATORS=       6.7 SECONDS (       0.3 SEC/ITER)
     TIME TO SOLVE SCF EQUATIONS=       0.1 SECONDS (       0.0 SEC/ITER)

 FINAL U-B3LYP ENERGY IS     -238.6462297966 AFTER  21 ITERATIONS
 DFT EXCHANGE + CORRELATION ENERGY =       -19.0962491249
 TOTAL ELECTRON NUMBER             =        21.0001651742

          --------------------
          SPIN SZ   =    0.500
          S-SQUARED =    0.750
          --------------------

  ----- ALPHA SET ----- 

          ------------
          EIGENVECTORS
          ------------

                      1          2          3          4          5
                  -38.4753   -19.1987    -2.2124    -1.1444    -1.1442
                     A          A          A          A          A   
    1  NA 1  S    0.997732  -0.000005  -0.246108  -0.000000   0.000000
    2  NA 1  S    0.009994   0.000121   1.025891   0.000000   0.000000
    3  NA 1  X    0.000000   0.000000   0.000000   0.000000   0.995432
    4  NA 1  Y   -0.000000   0.000000  -0.000000   0.995334   0.000000
    5  NA 1  Z    0.000005  -0.000025  -0.001884   0.000000   0.000000
    6  NA 1  S    0.002598   0.000385  -0.003200   0.000000   0.000000
    7  NA 1  X    0.000000   0.000000   0.000000   0.000000   0.025998
    8  NA 1  Y    0.000000  -0.000000  -0.000000   0.027029   0.000000
    9  NA 1  Z    0.001466  -0.000254  -0.004796   0.000000   0.000000
   10  NA 1  S    0.000095   0.000246  -0.000487   0.000000   0.000000
   11  NA 1  X    0.000000   0.000000   0.000000   0.000000  -0.008990
   12  NA 1  Y    0.000000   0.000000   0.000000  -0.009841   0.000000
   13  NA 1  Z    0.000349   0.000396  -0.000351  -0.000000   0.000000
   14  NA 1  S    0.000213  -0.000169  -0.000523   0.000000   0.000000
   15  NA 1  X    0.000000   0.000000   0.000000   0.000000   0.002837
   16  NA 1  Y    0.000000   0.000000   0.000000   0.002672   0.000000
   17  NA 1  Z   -0.000021  -0.000211  -0.000043   0.000000   0.000000
   18  NA 1 XX   -0.000839   0.000072   0.001758  -0.000000   0.000000
   19  NA 1 YY   -0.000811   0.000092   0.001817  -0.000000   0.000000
   20  NA 1 ZZ   -0.000601  -0.000511  -0.000134  -0.000000   0.000000
   21  NA 1 XY    0.000000   0.000000   0.000000   0.000000  -0.000000
   22  NA 1 XZ    0.000000   0.000000   0.000000   0.000000  -0.000610
   23  NA 1 YZ    0.000000  -0.000000  -0.000000  -0.000145   0.000000
   24  O  2  S   -0.000120   0.992633  -0.000074  -0.000000   0.000000
   25  O  2  S   -0.000499   0.025594   0.001109   0.000000   0.000000
   26  O  2  X    0.000000   0.000000   0.000000   0.000000   0.000845
   27  O  2  Y    0.000000   0.000000   0.000000   0.000878   0.000000
   28  O  2  Z    0.000096   0.001194  -0.000616   0.000000   0.000000
   29  O  2  S    0.002466   0.013819  -0.003365   0.000000   0.000000
   30  O  2  X    0.000000   0.000000   0.000000   0.000000   0.000731
   31  O  2  Y    0.000000   0.000000  -0.000000   0.001167   0.000000
   32  O  2  Z   -0.000674  -0.000836   0.000391   0.000000   0.000000
   33  O  2  S   -0.001814  -0.002794   0.005009   0.000000   0.000000
   34  O  2  X    0.000000   0.000000   0.000000   0.000000  -0.000780
   35  O  2  Y   -0.000000   0.000000   0.000000  -0.003504   0.000000
   36  O  2  Z    0.002818   0.000744  -0.006575   0.000000   0.000000
   37  O  2 XX   -0.000337  -0.008446   0.000349  -0.000000   0.000000
   38  O  2 YY   -0.000356  -0.008382   0.000486   0.000000   0.000000
   39  O  2 ZZ   -0.000404  -0.008361   0.001047   0.000000   0.000000
   40  O  2 XY    0.000000   0.000000   0.000000   0.000000   0.000000
   41  O  2 XZ    0.000000   0.000000   0.000000   0.000000  -0.000430
   42  O  2 YZ    0.000000   0.000000  -0.000000  -0.000450   0.000000
   43  H  3  S    0.000051   0.000300  -0.000122  -0.000119   0.000000
   44  H  3  S   -0.000528  -0.000856   0.000876  -0.001082   0.000000
   45  H  3  S   -0.000535   0.000373   0.001131  -0.004150   0.000000
   46  H  3  X    0.000000   0.000000   0.000000   0.000000   0.000033
   47  H  3  Y    0.000006  -0.000097  -0.000045  -0.000108   0.000000
   48  H  3  Z   -0.000064   0.000101   0.000133  -0.000027   0.000000
   49  H  4  S    0.000051   0.000300  -0.000122   0.000119   0.000000
   50  H  4  S   -0.000528  -0.000856   0.000876   0.001082   0.000000
   51  H  4  S   -0.000535   0.000373   0.001131   0.004150   0.000000
   52  H  4  X    0.000000   0.000000   0.000000   0.000000   0.000033
   53  H  4  Y   -0.000006   0.000097   0.000045  -0.000108   0.000000
   54  H  4  Z   -0.000064   0.000101   0.000133   0.000027   0.000000

                      6          7          8          9         10
                   -1.1434    -1.0614    -0.5836    -0.4429    -0.3576
                     A          A          A          A          A   
    1  NA 1  S   -0.000383   0.001417  -0.000000  -0.008255  -0.000000
    2  NA 1  S    0.002705  -0.005002   0.000000   0.050545  -0.000000
    3  NA 1  X    0.000000  -0.000000  -0.000000   0.000000  -0.014680
    4  NA 1  Y   -0.000000  -0.000000  -0.008225  -0.000000  -0.000000
    5  NA 1  Z    0.991932  -0.080706   0.000000   0.060804  -0.000000
    6  NA 1  S    0.014101   0.013450  -0.000001  -0.007969  -0.000000
    7  NA 1  X    0.000000  -0.000000  -0.000000   0.000000   0.001911
    8  NA 1  Y    0.000000   0.000001   0.001173   0.000001  -0.000000
    9  NA 1  Z    0.028182   0.004649   0.000000   0.013195  -0.000000
   10  NA 1  S   -0.003030   0.001128   0.000002   0.008540  -0.000000
   11  NA 1  X    0.000000  -0.000000  -0.000000   0.000000  -0.000307
   12  NA 1  Y   -0.000000  -0.000000  -0.000365  -0.000000  -0.000000
   13  NA 1  Z   -0.008099   0.002968   0.000001  -0.000147  -0.000000
   14  NA 1  S   -0.000406  -0.002089   0.000001  -0.001333  -0.000000
   15  NA 1  X    0.000000  -0.000000  -0.000000   0.000000   0.001219
   16  NA 1  Y   -0.000000  -0.000000  -0.000339  -0.000000  -0.000000
   17  NA 1  Z    0.001643  -0.002309   0.000001   0.001304  -0.000000
   18  NA 1 XX   -0.002758  -0.000758   0.000000   0.003168  -0.000000
   19  NA 1 YY   -0.002578   0.000042   0.000000   0.002060  -0.000000
   20  NA 1 ZZ   -0.004658  -0.001450   0.000000   0.004024  -0.000000
   21  NA 1 XY    0.000000  -0.000000  -0.000000   0.000000   0.000000
   22  NA 1 XZ    0.000000  -0.000000  -0.000000   0.000000   0.000620
   23  NA 1 YZ    0.000000   0.000000   0.000138   0.000000  -0.000000
   24  O  2  S   -0.015979  -0.213169   0.000000   0.071653  -0.000000
   25  O  2  S    0.032601   0.469539  -0.000000  -0.160963  -0.000000
   26  O  2  X    0.000000  -0.000000  -0.000000   0.000000   0.642540
   27  O  2  Y   -0.000000  -0.000000   0.525446  -0.000000  -0.000000
   28  O  2  Z    0.000272   0.109336   0.000000   0.564157  -0.000000
   29  O  2  S    0.036329   0.440960   0.000002  -0.280673  -0.000000
   30  O  2  X    0.000000  -0.000000  -0.000000   0.000000   0.421724
   31  O  2  Y   -0.000000  -0.000001   0.253750  -0.000001  -0.000000
   32  O  2  Z   -0.006887   0.027444   0.000001   0.343998  -0.000000
   33  O  2  S   -0.009743   0.000369   0.000010  -0.073874  -0.000000
   34  O  2  X    0.000000  -0.000000  -0.000000   0.000000   0.125543
   35  O  2  Y   -0.000000  -0.000002   0.024597  -0.000003  -0.000000
   36  O  2  Z    0.007081   0.019806   0.000004   0.102136  -0.000000
   37  O  2 XX   -0.001899  -0.010055  -0.000000  -0.005904  -0.000000
   38  O  2 YY   -0.001419  -0.002212   0.000000  -0.004339  -0.000000
   39  O  2 ZZ    0.001495   0.000881   0.000000   0.024901  -0.000000
   40  O  2 XY    0.000000  -0.000000  -0.000000   0.000000   0.000000
   41  O  2 XZ    0.000000  -0.000000  -0.000000   0.000000   0.021714
   42  O  2 YZ   -0.000000  -0.000000   0.025234  -0.000000  -0.000000
   43  H  3  S    0.009371   0.153782  -0.244832   0.139283  -0.000000
   44  H  3  S   -0.000051  -0.003065  -0.104102   0.076133  -0.000000
   45  H  3  S    0.001545   0.003084  -0.007830  -0.002032  -0.000000
   46  H  3  X    0.000000  -0.000000  -0.000000   0.000000   0.022327
   47  H  3  Y    0.001435   0.021609  -0.007295   0.012641  -0.000000
   48  H  3  Z   -0.000733  -0.012227   0.015830   0.008732  -0.000000
   49  H  4  S    0.009371   0.153782   0.244832   0.139283  -0.000000
   50  H  4  S   -0.000051  -0.003061   0.104091   0.076137  -0.000000
   51  H  4  S    0.001545   0.003088   0.007824  -0.002026  -0.000000
   52  H  4  X    0.000000  -0.000000  -0.000000   0.000000   0.022327
   53  H  4  Y   -0.001435  -0.021609  -0.007294  -0.012641  -0.000000
   54  H  4  Z   -0.000733  -0.012227  -0.015830   0.008732  -0.000000

                     11         12         13         14         15
                   -0.1053    -0.0359    -0.0177    -0.0124     0.0055
                     A          A          A          A          A   
    1  NA 1  S    0.032918   0.008336  -0.000000   0.000000  -0.012504
    2  NA 1  S   -0.182821  -0.054168   0.000000   0.000000   0.092012
    3  NA 1  X   -0.000000  -0.000000  -0.000000  -0.081267   0.000000
    4  NA 1  Y   -0.000000  -0.000000  -0.082995   0.000000   0.000000
    5  NA 1  Z    0.033603   0.058979  -0.000000   0.000000   0.002972
    6  NA 1  S    0.442718   0.036484  -0.000000   0.000000   0.118061
    7  NA 1  X   -0.000000  -0.000000  -0.000000   0.199218   0.000000
    8  NA 1  Y   -0.000000   0.000001   0.210476   0.000000  -0.000000
    9  NA 1  Z   -0.111283  -0.176602   0.000001   0.000000  -0.014412
   10  NA 1  S    0.497532   0.551292   0.000001   0.000000  -1.089212
   11  NA 1  X   -0.000000  -0.000000  -0.000000   0.511576   0.000000
   12  NA 1  Y    0.000001  -0.000002   0.457397   0.000000  -0.000003
   13  NA 1  Z   -0.051583  -0.069924   0.000002   0.000000  -0.080040
   14  NA 1  S    0.043109  -0.187948   0.000002   0.000000   1.549780
   15  NA 1  X   -0.000000  -0.000000  -0.000000   0.477837   0.000000
   16  NA 1  Y    0.000000   0.000000   0.393880   0.000000   0.000000
   17  NA 1  Z    0.003733  -0.247154   0.000001   0.000000  -0.140172
   18  NA 1 XX   -0.000518   0.015415   0.000000   0.000000  -0.058832
   19  NA 1 YY    0.007894   0.012648   0.000000   0.000000  -0.064042
   20  NA 1 ZZ   -0.022397   0.003211   0.000000   0.000000  -0.052875
   21  NA 1 XY   -0.000000  -0.000000  -0.000000   0.000000   0.000000
   22  NA 1 XZ   -0.000000  -0.000000  -0.000000  -0.016049   0.000000
   23  NA 1 YZ   -0.000000   0.000000  -0.006527   0.000000   0.000000
   24  O  2  S    0.036639  -0.043827   0.000000   0.000000  -0.016156
   25  O  2  S   -0.087970   0.102423  -0.000000   0.000000   0.043715
   26  O  2  X   -0.000000  -0.000000  -0.000000  -0.075078   0.000000
   27  O  2  Y    0.000000  -0.000001  -0.084295   0.000000  -0.000000
   28  O  2  Z    0.012499   0.140714  -0.000000   0.000000  -0.008073
   29  O  2  S   -0.240945   0.345339   0.000000   0.000000   0.100566
   30  O  2  X   -0.000000  -0.000000  -0.000000  -0.055449   0.000000
   31  O  2  Y   -0.000000  -0.000000  -0.069974   0.000000  -0.000000
   32  O  2  Z   -0.013053   0.146333   0.000000   0.000000   0.003013
   33  O  2  S   -0.206874   0.531548   0.000004   0.000000   0.230028
   34  O  2  X   -0.000000  -0.000000  -0.000000  -0.020498   0.000000
   35  O  2  Y    0.000001  -0.000006  -0.073326   0.000000  -0.000002
   36  O  2  Z   -0.027023   0.051254   0.000002   0.000000   0.004802
   37  O  2 XX    0.003493  -0.008659  -0.000000   0.000000   0.000230
   38  O  2 YY    0.005038  -0.011836   0.000000   0.000000  -0.001415
   39  O  2 ZZ    0.006665  -0.000996  -0.000000   0.000000  -0.001294
   40  O  2 XY   -0.000000  -0.000000  -0.000000   0.000000   0.000000
   41  O  2 XZ   -0.000000  -0.000000  -0.000000  -0.004530   0.000000
   42  O  2 YZ   -0.000000   0.000000  -0.005708   0.000000   0.000000
   43  H  3  S    0.025756  -0.030014   0.013909   0.000000  -0.014213
   44  H  3  S    0.145458  -0.296840  -0.064383   0.000000  -0.088538
   45  H  3  S    0.114183  -0.507594  -0.379980   0.000000  -0.124485
   46  H  3  X   -0.000000  -0.000000  -0.000000  -0.001400   0.000000
   47  H  3  Y   -0.004139   0.011147   0.003360   0.000000   0.001944
   48  H  3  Z    0.003540  -0.005833  -0.001740   0.000000  -0.001394
   49  H  4  S    0.025756  -0.030014  -0.013909   0.000000  -0.014213
   50  H  4  S    0.145457  -0.296835   0.064380   0.000000  -0.088535
   51  H  4  S    0.114178  -0.507564   0.379977   0.000000  -0.124468
   52  H  4  X   -0.000000  -0.000000  -0.000000  -0.001400   0.000000
   53  H  4  Y    0.004139  -0.011147   0.003360   0.000000  -0.001944
   54  H  4  Z    0.003540  -0.005833   0.001740   0.000000  -0.001394

                     16         17         18         19         20
                    0.0155     0.0179     0.0205     0.0254     0.0289
                     A          A          A          A          A   
    1  NA 1  S    0.002728  -0.000000   0.000000  -0.000000   0.004589
    2  NA 1  S   -0.009736  -0.000000   0.000000   0.000004  -0.058417
    3  NA 1  X   -0.000000   0.000000   0.077014  -0.000000   0.000000
    4  NA 1  Y    0.000003   0.081237   0.000000  -0.014754  -0.000002
    5  NA 1  Z    0.024509  -0.000001   0.000000   0.000005  -0.054856
    6  NA 1  S    0.102213  -0.000006   0.000000   0.000025  -0.255480
    7  NA 1  X   -0.000000   0.000000  -0.163028  -0.000000   0.000000
    8  NA 1  Y   -0.000005  -0.165236   0.000000   0.024188   0.000005
    9  NA 1  Z   -0.044922   0.000003   0.000000  -0.000012   0.110529
   10  NA 1  S    0.232546   0.000007   0.000000  -0.000113   1.390937
   11  NA 1  X   -0.000000   0.000000  -0.991264  -0.000000   0.000000
   12  NA 1  Y   -0.000046  -1.066790   0.000000   0.338446   0.000035
   13  NA 1  Z   -0.136720   0.000021   0.000000  -0.000159   1.914752
   14  NA 1  S    0.437687  -0.000015   0.000000  -0.000008   0.279029
   15  NA 1  X   -0.000000   0.000000   1.188002  -0.000000   0.000000
   16  NA 1  Y    0.000023   1.100450   0.000000   0.540242   0.000034
   17  NA 1  Z    1.247482  -0.000044   0.000000   0.000060  -0.373862
   18  NA 1 XX   -0.000025   0.000001   0.000000  -0.000006   0.055341
   19  NA 1 YY   -0.005606   0.000001   0.000000  -0.000006   0.057374
   20  NA 1 ZZ   -0.021464   0.000001   0.000000  -0.000001  -0.014232
   21  NA 1 XY   -0.000000   0.000000  -0.000000  -0.000000   0.000000
   22  NA 1 XZ   -0.000000   0.000000   0.009940  -0.000000   0.000000
   23  NA 1 YZ    0.000002   0.015041   0.000000  -0.030780  -0.000002
   24  O  2  S   -0.027106   0.000001   0.000000  -0.000001   0.006848
   25  O  2  S    0.072985  -0.000003   0.000000   0.000005  -0.018868
   26  O  2  X   -0.000000   0.000000   0.045194  -0.000000   0.000000
   27  O  2  Y   -0.000005  -0.018660   0.000000   0.176880   0.000014
   28  O  2  Z    0.084539  -0.000002   0.000000  -0.000005   0.104844
   29  O  2  S    0.198779  -0.000006   0.000000   0.000003  -0.028545
   30  O  2  X   -0.000000   0.000000   0.022199  -0.000000   0.000000
   31  O  2  Y   -0.000005  -0.036803   0.000000   0.171947   0.000016
   32  O  2  Z    0.094610  -0.000002   0.000000  -0.000006   0.061537
   33  O  2  S    0.610389  -0.000009   0.000000  -0.000033   0.202617
   34  O  2  X   -0.000000   0.000000   0.070639  -0.000000   0.000000
   35  O  2  Y   -0.000020  -0.102963   0.000000   0.420495   0.000029
   36  O  2  Z    0.117897   0.000003   0.000000  -0.000030   0.202130
   37  O  2 XX   -0.001189  -0.000000   0.000000   0.000001   0.000542
   38  O  2 YY   -0.005325   0.000000   0.000000  -0.000001  -0.002977
   39  O  2 ZZ    0.002425  -0.000000   0.000000   0.000000   0.000572
   40  O  2 XY   -0.000000   0.000000  -0.000000  -0.000000   0.000000
   41  O  2 XZ   -0.000000   0.000000   0.004313  -0.000000   0.000000
   42  O  2 YZ    0.000001   0.005497   0.000000  -0.002222   0.000000
   43  H  3  S   -0.025731  -0.019822   0.000000   0.015006   0.005859
   44  H  3  S   -0.253683  -0.109384   0.000000   0.332284  -0.074717
   45  H  3  S   -0.691004  -0.678896   0.000000   2.476298  -1.102214
   46  H  3  X   -0.000000   0.000000   0.001684  -0.000000   0.000000
   47  H  3  Y    0.007116   0.000548   0.000000  -0.007619   0.003325
   48  H  3  Z   -0.003652  -0.002468   0.000000   0.008411  -0.003638
   49  H  4  S   -0.025730   0.019823   0.000000  -0.015005   0.005855
   50  H  4  S   -0.253655   0.109389   0.000000  -0.332249  -0.074768
   51  H  4  S   -0.690821   0.678922   0.000000  -2.476145  -1.102612
   52  H  4  X   -0.000000   0.000000   0.001684  -0.000000   0.000000
   53  H  4  Y   -0.007116   0.000548   0.000000  -0.007620  -0.003327
   54  H  4  Z   -0.003652   0.002468   0.000000  -0.008411  -0.003639

                     21         22         23         24         25
                    0.1127     0.1387     0.1426     0.1576     0.1665
                     A          A          A          A          A   
    1  NA 1  S   -0.028849   0.000000  -0.000000   0.000000   0.005009
    2  NA 1  S   -0.072388   0.000000  -0.000000   0.000000   0.050813
    3  NA 1  X    0.000000   0.000000  -0.190405  -0.088159   0.000000
    4  NA 1  Y   -0.000000   0.195624  -0.000000   0.000000  -0.000000
    5  NA 1  Z   -0.046428   0.000000  -0.000000   0.000000  -0.124080
    6  NA 1  S   -3.385229   0.000002  -0.000000   0.000000   0.924234
    7  NA 1  X    0.000000   0.000000   1.401519   0.449734   0.000000
    8  NA 1  Y    0.000001  -1.283794  -0.000000   0.000000   0.000002
    9  NA 1  Z    0.800620  -0.000000  -0.000000   0.000000   0.827702
   10  NA 1  S    4.038612  -0.000002  -0.000000   0.000000  -0.583126
   11  NA 1  X    0.000000   0.000000  -1.158999  -1.007234   0.000000
   12  NA 1  Y    0.000001   1.580352  -0.000000   0.000000  -0.000001
   13  NA 1  Z   -0.181897   0.000001  -0.000000   0.000000  -0.780379
   14  NA 1  S   -1.107600   0.000001  -0.000000   0.000000   0.516425
   15  NA 1  X    0.000000   0.000000   0.483576   0.286764   0.000000
   16  NA 1  Y   -0.000000  -0.535570  -0.000000   0.000000  -0.000000
   17  NA 1  Z    0.255037  -0.000000  -0.000000   0.000000   0.559325
   18  NA 1 XX    0.462175  -0.000000  -0.000000   0.000000  -0.094066
   19  NA 1 YY    0.448131  -0.000000  -0.000000   0.000000  -0.077784
   20  NA 1 ZZ    0.586447  -0.000000  -0.000000   0.000000  -0.168635
   21  NA 1 XY    0.000000   0.000000  -0.000000   0.000000   0.000000
   22  NA 1 XZ    0.000000   0.000000  -0.021752   0.004041   0.000000
   23  NA 1 YZ    0.000000  -0.007752  -0.000000   0.000000  -0.000000
   24  O  2  S   -0.013717   0.000000  -0.000000   0.000000   0.097104
   25  O  2  S   -0.000560  -0.000000  -0.000000   0.000000  -0.105108
   26  O  2  X    0.000000   0.000000   0.094771  -0.256501   0.000000
   27  O  2  Y    0.000000  -0.026139  -0.000000   0.000000   0.000000
   28  O  2  Z   -0.067445  -0.000000  -0.000000   0.000000  -0.094083
   29  O  2  S    0.229801   0.000000  -0.000000   0.000000  -1.277003
   30  O  2  X    0.000000   0.000000   0.180992  -0.440644   0.000000
   31  O  2  Y    0.000001  -0.103786  -0.000000   0.000000   0.000002
   32  O  2  Z   -0.074844   0.000000  -0.000000   0.000000  -0.132855
   33  O  2  S   -0.281897   0.000004  -0.000000   0.000000   1.892197
   34  O  2  X    0.000000   0.000000  -0.598312   1.234961   0.000000
   35  O  2  Y   -0.000005  -0.449798  -0.000000   0.000000  -0.000006
   36  O  2  Z    0.746845   0.000002  -0.000000   0.000000   0.479146
   37  O  2 XX   -0.007902  -0.000000  -0.000000   0.000000   0.048045
   38  O  2 YY   -0.012378  -0.000000  -0.000000   0.000000   0.067477
   39  O  2 ZZ   -0.022643  -0.000000  -0.000000   0.000000   0.060602
   40  O  2 XY    0.000000   0.000000   0.000000  -0.000000   0.000000
   41  O  2 XZ    0.000000   0.000000  -0.006799  -0.009724   0.000000
   42  O  2 YZ    0.000000   0.016189  -0.000000   0.000000   0.000000
   43  H  3  S   -0.008424  -0.057982  -0.000000   0.000000   0.105140
   44  H  3  S   -0.131954  -0.481814  -0.000000   0.000000   0.317179
   45  H  3  S   -0.405976   0.383557  -0.000000   0.000000  -0.976797
   46  H  3  X    0.000000   0.000000  -0.006529   0.006200   0.000000
   47  H  3  Y   -0.000471  -0.002123  -0.000000   0.000000  -0.014923
   48  H  3  Z   -0.000448  -0.003407  -0.000000   0.000000   0.009705
   49  H  4  S   -0.008424   0.057983  -0.000000   0.000000   0.105139
   50  H  4  S   -0.131952   0.481810  -0.000000   0.000000   0.317181
   51  H  4  S   -0.405975  -0.383559  -0.000000   0.000000  -0.976788
   52  H  4  X    0.000000   0.000000  -0.006529   0.006200   0.000000
   53  H  4  Y    0.000470  -0.002123  -0.000000   0.000000   0.014923
   54  H  4  Z   -0.000448   0.003407  -0.000000   0.000000   0.009705

                     26         27         28         29         30
                    0.1884     0.1967     0.2190     0.2349     0.2934
                     A          A          A          A          A   
    1  NA 1  S   -0.011801   0.000000   0.000000  -0.003431   0.004164
    2  NA 1  S    0.053387   0.000003  -0.000017   0.248394  -0.395936
    3  NA 1  X    0.000000   0.000000  -0.000000   0.000000  -0.000000
    4  NA 1  Y   -0.000001   0.010993   0.070910   0.000005   0.000000
    5  NA 1  Z    0.172508  -0.000004   0.000002  -0.013235  -0.007312
    6  NA 1  S   -0.539891   0.000046  -0.000154   2.093451  -3.666532
    7  NA 1  X    0.000000   0.000000  -0.000000   0.000000  -0.000000
    8  NA 1  Y    0.000010   0.044109  -0.913524  -0.000074  -0.000005
    9  NA 1  Z   -1.104493   0.000035  -0.000066   0.855483  -1.762341
   10  NA 1  S    1.131116  -0.000040   0.000056  -0.561648   0.848786
   11  NA 1  X    0.000000   0.000000  -0.000000   0.000000  -0.000000
   12  NA 1  Y   -0.000005  -0.077412   0.414948   0.000039   0.000004
   13  NA 1  Z    1.499005  -0.000034   0.000011   0.044549  -0.106838
   14  NA 1  S    0.250391  -0.000000  -0.000021   0.303452  -0.187372
   15  NA 1  X    0.000000   0.000000  -0.000000   0.000000  -0.000000
   16  NA 1  Y   -0.000004  -0.211323  -0.029679   0.000003   0.000001
   17  NA 1  Z   -0.056843   0.000001  -0.000005   0.068510   0.084548
   18  NA 1 XX    0.032687  -0.000001   0.000002  -0.039720   0.492645
   19  NA 1 YY   -0.006449  -0.000005   0.000023  -0.331506   0.221151
   20  NA 1 ZZ    0.235015  -0.000008   0.000013  -0.170818   0.360636
   21  NA 1 XY    0.000000   0.000000  -0.000000   0.000000  -0.000000
   22  NA 1 XZ    0.000000   0.000000  -0.000000   0.000000  -0.000000
   23  NA 1 YZ    0.000001   0.081734   0.206618   0.000020   0.000003
   24  O  2  S    0.024772  -0.000001   0.000003  -0.038973   0.041065
   25  O  2  S   -0.005628  -0.000001   0.000002   0.000771  -0.022280
   26  O  2  X    0.000000   0.000000  -0.000000   0.000000  -0.000000
   27  O  2  Y    0.000008   0.380182   0.050074  -0.000005  -0.000002
   28  O  2  Z   -0.257976   0.000007  -0.000006   0.044981   0.181304
   29  O  2  S   -0.466636   0.000030  -0.000076   0.841286  -0.638768
   30  O  2  X    0.000000   0.000000  -0.000000   0.000000  -0.000000
   31  O  2  Y    0.000016   0.731921   0.238003   0.000006  -0.000000
   32  O  2  Z   -0.364069   0.000019  -0.000036   0.324770   0.491818
   33  O  2  S    1.709035   0.000050  -0.000298   3.356867   4.612509
   34  O  2  X    0.000000   0.000000  -0.000000   0.000000  -0.000000
   35  O  2  Y   -0.000047  -1.092518   2.377547   0.000216   0.000016
   36  O  2  Z    0.887477   0.000032  -0.000207   2.721576  -1.631746
   37  O  2 XX    0.022929  -0.000001   0.000002  -0.013467   0.048190
   38  O  2 YY    0.026771  -0.000001   0.000004  -0.051626   0.033428
   39  O  2 ZZ    0.006123  -0.000000   0.000001  -0.003954   0.021292
   40  O  2 XY    0.000000   0.000000  -0.000000   0.000000  -0.000000
   41  O  2 XZ    0.000000   0.000000  -0.000000   0.000000  -0.000000
   42  O  2 YZ    0.000001   0.003367  -0.025498  -0.000002  -0.000000
   43  H  3  S    0.058384   0.135482   0.114091  -0.133041  -0.033522
   44  H  3  S   -0.000294   0.834032   1.681356  -2.411127  -1.074544
   45  H  3  S   -1.340922  -2.388360   1.380692  -0.781080  -0.058916
   46  H  3  X    0.000000   0.000000  -0.000000   0.000000  -0.000000
   47  H  3  Y   -0.009075  -0.004678   0.012304   0.000946  -0.014854
   48  H  3  Z    0.006423   0.007823   0.006760   0.021455  -0.007690
   49  H  4  S    0.058378  -0.135492  -0.114066  -0.133056  -0.033523
   50  H  4  S   -0.000303  -0.834150  -1.680931  -2.411365  -1.074556
   51  H  4  S   -1.340795   2.388395  -1.380594  -0.781441  -0.058957
   52  H  4  X    0.000000   0.000000  -0.000000   0.000000  -0.000000
   53  H  4  Y    0.009074  -0.004677   0.012304  -0.000946   0.014853
   54  H  4  Z    0.006423  -0.007822  -0.006764   0.021454  -0.007690

                     31         32         33         34         35
                    0.3493     0.3584     0.3929     0.4852     0.5230
                     A          A          A          A          A   
    1  NA 1  S    0.000000  -0.001033  -0.000000  -0.000000   0.003426
    2  NA 1  S    0.000000  -0.010441  -0.000000   0.000001   0.094007
    3  NA 1  X    0.000000   0.000000  -0.010276  -0.000000  -0.000000
    4  NA 1  Y    0.000000   0.000000  -0.000000   0.034678  -0.000000
    5  NA 1  Z    0.000000   0.001465  -0.000000   0.000000   0.043078
    6  NA 1  S    0.000000  -0.205208  -0.000000   0.000016   5.508078
    7  NA 1  X    0.000000   0.000000   0.125810  -0.000000  -0.000000
    8  NA 1  Y    0.000000  -0.000001  -0.000000  -0.624249   0.000001
    9  NA 1  Z    0.000000  -0.142982  -0.000000  -0.000002  -1.154657
   10  NA 1  S    0.000000   0.134518  -0.000000  -0.000005  -2.832478
   11  NA 1  X    0.000000   0.000000   0.168031  -0.000000  -0.000000
   12  NA 1  Y    0.000000   0.000002  -0.000000  -0.022966  -0.000000
   13  NA 1  Z    0.000000   0.071517  -0.000000   0.000001  -0.116959
   14  NA 1  S    0.000000   0.048345  -0.000000   0.000003   0.493214
   15  NA 1  X   -0.000000   0.000000  -0.033455  -0.000000  -0.000000
   16  NA 1  Y    0.000000   0.000000  -0.000000   0.073904  -0.000000
   17  NA 1  Z    0.000000   0.042518  -0.000000   0.000001  -0.022159
   18  NA 1 XX    0.000000  -0.835612  -0.000000  -0.000006  -1.674937
   19  NA 1 YY    0.000000   0.852448  -0.000000  -0.000004  -1.667180
   20  NA 1 ZZ    0.000000   0.044553  -0.000000  -0.000006  -3.081292
   21  NA 1 XY    0.999651   0.000000  -0.000000  -0.000000  -0.000000
   22  NA 1 XZ    0.000000   0.000000   1.070984  -0.000000  -0.000000
   23  NA 1 YZ    0.000000   0.000003  -0.000000  -1.197092   0.000002
   24  O  2  S    0.000000  -0.002939  -0.000000  -0.000000  -0.017460
   25  O  2  S    0.000000   0.008531  -0.000000   0.000002   0.048975
   26  O  2  X    0.000000   0.000000  -0.018170  -0.000000  -0.000000
   27  O  2  Y    0.000000  -0.000001  -0.000000   0.134854  -0.000000
   28  O  2  Z    0.000000   0.046045  -0.000000   0.000002  -0.086597
   29  O  2  S    0.000000   0.060917  -0.000000  -0.000003  -0.061725
   30  O  2  X    0.000000   0.000000   0.062039  -0.000000  -0.000000
   31  O  2  Y    0.000000  -0.000000  -0.000000   0.189097  -0.000000
   32  O  2  Z    0.000000   0.155211  -0.000000   0.000000  -0.325060
   33  O  2  S    0.000000   1.690863  -0.000000   0.000028   1.531758
   34  O  2  X   -0.000000   0.000000  -0.506029  -0.000000  -0.000000
   35  O  2  Y    0.000000   0.000004  -0.000000   2.294439  -0.000005
   36  O  2  Z    0.000000   0.396042  -0.000000   0.000009  -0.684516
   37  O  2 XX    0.000000   0.005310  -0.000000   0.000001   0.016828
   38  O  2 YY    0.000000  -0.001559  -0.000000  -0.000001   0.010324
   39  O  2 ZZ    0.000000   0.004365  -0.000000   0.000000  -0.047267
   40  O  2 XY    0.011434   0.000000   0.000000  -0.000000  -0.000000
   41  O  2 XZ   -0.000000   0.000000  -0.040230  -0.000000  -0.000000
   42  O  2 YZ    0.000000   0.000000  -0.000000  -0.004376   0.000000
   43  H  3  S    0.000000  -0.054429  -0.000000   0.077800   0.019410
   44  H  3  S    0.000000  -0.759535  -0.000000   1.517783  -0.161311
   45  H  3  S    0.000000  -0.285273  -0.000000   0.978886   0.172839
   46  H  3  X   -0.001689   0.000000  -0.015546  -0.000000  -0.000000
   47  H  3  Y    0.000000   0.001128  -0.000000   0.005127  -0.011879
   48  H  3  Z    0.000000   0.001110  -0.000000   0.017071  -0.024586
   49  H  4  S    0.000000  -0.054430  -0.000000  -0.077801   0.019410
   50  H  4  S    0.000000  -0.759536  -0.000000  -1.517805  -0.161306
   51  H  4  S    0.000000  -0.285291  -0.000000  -0.978898   0.172844
   52  H  4  X    0.001689   0.000000  -0.015546  -0.000000  -0.000000
   53  H  4  Y    0.000000  -0.001128  -0.000000   0.005128   0.011879
   54  H  4  Z    0.000000   0.001110  -0.000000  -0.017071  -0.024586

                     36         37         38         39         40
                    0.5823     0.9504     0.9945     1.1022     1.1361
                     A          A          A          A          A   
    1  NA 1  S    0.010250   0.000000  -0.000326   0.000000   0.000000
    2  NA 1  S    0.411356  -0.000000  -0.008392   0.000000   0.000000
    3  NA 1  X   -0.000000   0.000000   0.000000   0.011847  -0.000000
    4  NA 1  Y   -0.000000  -0.005356  -0.000000   0.000000   0.013800
    5  NA 1  Z   -0.060258   0.000000   0.000024   0.000000  -0.000000
    6  NA 1  S    8.947433  -0.000001  -0.122863   0.000000   0.000002
    7  NA 1  X   -0.000000   0.000000   0.000000  -0.007963  -0.000000
    8  NA 1  Y    0.000001   0.316337   0.000001   0.000000   0.082718
    9  NA 1  Z    1.654913  -0.000001  -0.154837   0.000000   0.000000
   10  NA 1  S   -3.028380  -0.000000   0.142784   0.000000  -0.000001
   11  NA 1  X   -0.000000   0.000000   0.000000   0.185506  -0.000000
   12  NA 1  Y   -0.000000   0.073962  -0.000001   0.000000   0.038607
   13  NA 1  Z   -0.021225   0.000000   0.120066   0.000000  -0.000001
   14  NA 1  S    0.514697  -0.000000   0.064067   0.000000  -0.000000
   15  NA 1  X   -0.000000   0.000000   0.000000  -0.029736  -0.000000
   16  NA 1  Y   -0.000000  -0.001068  -0.000000   0.000000  -0.087357
   17  NA 1  Z   -0.089806  -0.000000   0.047284   0.000000  -0.000000
   18  NA 1 XX   -2.857158  -0.000000   0.091851   0.000000  -0.000000
   19  NA 1 YY   -2.886076  -0.000000   0.001671   0.000000  -0.000001
   20  NA 1 ZZ   -1.202773  -0.000001  -0.123295   0.000000  -0.000000
   21  NA 1 XY   -0.000000   0.000000   0.000000  -0.000000  -0.000000
   22  NA 1 XZ   -0.000000   0.000000   0.000000  -0.041805  -0.000000
   23  NA 1 YZ    0.000001   0.262046   0.000001   0.000000  -0.086225
   24  O  2  S    0.008242  -0.000000  -0.014428   0.000000   0.000000
   25  O  2  S   -0.079598  -0.000002   0.631609   0.000000   0.000001
   26  O  2  X   -0.000000   0.000000   0.000000  -0.973487  -0.000000
   27  O  2  Y    0.000000   0.563785   0.000001   0.000000  -0.668024
   28  O  2  Z    0.103867  -0.000001   0.550830   0.000000   0.000001
   29  O  2  S    0.218647   0.000003  -1.774028   0.000000  -0.000001
   30  O  2  X   -0.000000   0.000000   0.000000   1.489103  -0.000000
   31  O  2  Y   -0.000001  -0.946110  -0.000002   0.000000   1.792067
   32  O  2  Z    0.065239   0.000001  -0.979191   0.000000  -0.000001
   33  O  2  S   -2.811770  -0.000003  -1.608992   0.000000  -0.000007
   34  O  2  X   -0.000000   0.000000   0.000000  -0.801417  -0.000000
   35  O  2  Y   -0.000003  -1.338062  -0.000004   0.000000  -1.478224
   36  O  2  Z    1.089209  -0.000003  -0.563960   0.000000  -0.000002
   37  O  2 XX   -0.034979  -0.000000   0.288586   0.000000   0.000000
   38  O  2 YY   -0.022522  -0.000001  -0.114942   0.000000   0.000001
   39  O  2 ZZ    0.038311  -0.000001   0.067154   0.000000   0.000000
   40  O  2 XY   -0.000000   0.000000   0.000000   0.000000  -0.000000
   41  O  2 XZ   -0.000000   0.000000   0.000000   0.033946  -0.000000
   42  O  2 YZ   -0.000000  -0.358034   0.000001   0.000000  -0.145477
   43  H  3  S   -0.004133   0.599949  -0.602752   0.000000   0.539736
   44  H  3  S    0.227901  -2.452724   2.200050   0.000000  -0.402113
   45  H  3  S    0.202183   0.165094  -0.188056   0.000000  -0.989119
   46  H  3  X   -0.000000   0.000000   0.000000   0.017868  -0.000000
   47  H  3  Y    0.008520  -0.126850   0.157929   0.000000   0.112910
   48  H  3  Z    0.013866   0.127864  -0.082295   0.000000  -0.009041
   49  H  4  S   -0.004132  -0.599952  -0.602750   0.000000  -0.539739
   50  H  4  S    0.227904   2.452729   2.200053   0.000000   0.402121
   51  H  4  S    0.202187  -0.165093  -0.188046   0.000000   0.989122
   52  H  4  X   -0.000000   0.000000   0.000000   0.017868  -0.000000
   53  H  4  Y   -0.008520  -0.126852  -0.157927   0.000000   0.112911
   54  H  4  Z    0.013866  -0.127863  -0.082295   0.000000   0.009041

                     41         42         43         44         45
                    1.1935     1.4145     1.4732     1.6441     1.7344
                     A          A          A          A          A   
    1  NA 1  S   -0.007430  -0.008213  -0.000000   0.000000  -0.001353
    2  NA 1  S    0.109545   0.099908  -0.000000   0.000000  -0.102462
    3  NA 1  X    0.000000   0.000000  -0.000000  -0.015023   0.000000
    4  NA 1  Y   -0.000000   0.000000  -0.000000   0.000000   0.000000
    5  NA 1  Z   -0.001539   0.029885  -0.000000   0.000000   0.014026
    6  NA 1  S    0.073401   0.352057  -0.000000   0.000000  -0.624453
    7  NA 1  X    0.000000   0.000000   0.000000   0.126390   0.000000
    8  NA 1  Y    0.000001  -0.000001  -0.000000   0.000000  -0.000000
    9  NA 1  Z   -0.068837  -0.165127  -0.000000   0.000000  -1.244232
   10  NA 1  S    0.437141   0.049016  -0.000000   0.000000  -0.027351
   11  NA 1  X    0.000000   0.000000  -0.000000  -0.042542   0.000000
   12  NA 1  Y   -0.000000   0.000000  -0.000000   0.000000  -0.000000
   13  NA 1  Z    0.340276   0.224188  -0.000000   0.000000   0.203882
   14  NA 1  S    0.065339  -0.133791  -0.000000   0.000000   0.054992
   15  NA 1  X    0.000000   0.000000   0.000000   0.013537   0.000000
   16  NA 1  Y   -0.000000   0.000000  -0.000000   0.000000  -0.000000
   17  NA 1  Z    0.025090  -0.165790  -0.000000   0.000000  -0.017811
   18  NA 1 XX    0.156696   0.053262  -0.000000   0.000000   0.115597
   19  NA 1 YY    0.181512   0.054445  -0.000000   0.000000   0.126575
   20  NA 1 ZZ   -0.180749  -0.431362  -0.000000   0.000000  -0.869401
   21  NA 1 XY    0.000000   0.000000  -0.029637   0.000000   0.000000
   22  NA 1 XZ    0.000000   0.000000   0.000000   0.196619   0.000000
   23  NA 1 YZ    0.000001  -0.000000  -0.000000   0.000000  -0.000000
   24  O  2  S    0.027136  -0.089062  -0.000000   0.000000   0.020704
   25  O  2  S    0.005600  -1.781743  -0.000000   0.000000   0.062894
   26  O  2  X    0.000000   0.000000   0.000000   0.024614   0.000000
   27  O  2  Y    0.000001  -0.000000  -0.000000   0.000000  -0.000000
   28  O  2  Z    0.684327   0.261387  -0.000000   0.000000   0.211763
   29  O  2  S   -0.223045   4.303679  -0.000000   0.000000  -0.469213
   30  O  2  X    0.000000   0.000000  -0.000000  -0.274258   0.000000
   31  O  2  Y   -0.000001   0.000000  -0.000000   0.000000   0.000000
   32  O  2  Z   -1.529629  -0.428725  -0.000000   0.000000  -0.952928
   33  O  2  S    1.493926  -2.665621  -0.000000   0.000000   1.857247
   34  O  2  X    0.000000   0.000000   0.000000  -0.029835   0.000000
   35  O  2  Y   -0.000005   0.000003  -0.000000   0.000000   0.000001
   36  O  2  Z    1.538821   0.080152  -0.000000   0.000000  -0.459448
   37  O  2 XX   -0.121189  -0.250403  -0.000000   0.000000  -0.407596
   38  O  2 YY    0.268899  -0.657527  -0.000000   0.000000  -0.309773
   39  O  2 ZZ   -0.155074  -0.504862  -0.000000   0.000000   0.820434
   40  O  2 XY    0.000000   0.000000   0.681533  -0.000000   0.000000
   41  O  2 XZ    0.000000   0.000000   0.000000   0.811731   0.000000
   42  O  2 YZ   -0.000000  -0.000000  -0.000000   0.000000  -0.000000
   43  H  3  S    0.547710  -0.233076  -0.000000   0.000000   0.279699
   44  H  3  S   -0.806714   0.203119  -0.000000   0.000000  -0.194035
   45  H  3  S   -0.592087   0.417094  -0.000000   0.000000  -0.136783
   46  H  3  X    0.000000   0.000000  -0.340677   0.281492   0.000000
   47  H  3  Y   -0.047662   0.034883  -0.000000   0.000000   0.151054
   48  H  3  Z   -0.120431   0.020092  -0.000000   0.000000   0.221397
   49  H  4  S    0.547708  -0.233074  -0.000000   0.000000   0.279700
   50  H  4  S   -0.806703   0.203114  -0.000000   0.000000  -0.194037
   51  H  4  S   -0.592083   0.417091  -0.000000   0.000000  -0.136782
   52  H  4  X    0.000000   0.000000   0.340677   0.281492   0.000000
   53  H  4  Y    0.047662  -0.034884  -0.000000   0.000000  -0.151053
   54  H  4  Z   -0.120431   0.020092  -0.000000   0.000000   0.221397

                     46         47         48         49         50
                    2.2413     2.2476     2.5519     2.6312     2.6379
                     A          A          A          A          A   
    1  NA 1  S   -0.001199   0.000000   0.000000   0.000000  -0.000000
    2  NA 1  S    0.003306  -0.000000  -0.000000   0.000000  -0.000000
    3  NA 1  X    0.000000  -0.000000   0.000000  -0.000915  -0.000000
    4  NA 1  Y    0.000001   0.007001  -0.002530   0.000000  -0.000000
    5  NA 1  Z    0.015322  -0.000002  -0.000000   0.000000  -0.000000
    6  NA 1  S   -0.035215   0.000005   0.000001   0.000000  -0.000000
    7  NA 1  X    0.000000  -0.000000   0.000000   0.004090   0.000000
    8  NA 1  Y   -0.000011  -0.094110   0.150225   0.000000  -0.000000
    9  NA 1  Z    0.036279  -0.000004   0.000000   0.000000  -0.000000
   10  NA 1  S   -0.039636   0.000003  -0.000002   0.000000  -0.000000
   11  NA 1  X    0.000000  -0.000000   0.000000  -0.021619  -0.000000
   12  NA 1  Y    0.000004   0.031979   0.010729   0.000000  -0.000000
   13  NA 1  Z   -0.039441   0.000003  -0.000001   0.000000  -0.000000
   14  NA 1  S   -0.043983   0.000004  -0.000000   0.000000  -0.000000
   15  NA 1  X    0.000000  -0.000000   0.000000   0.002142   0.000000
   16  NA 1  Y   -0.000001  -0.012815  -0.020833   0.000000  -0.000000
   17  NA 1  Z   -0.030414   0.000003  -0.000000   0.000000  -0.000000
   18  NA 1 XX    0.036456  -0.000004  -0.000000   0.000000  -0.000000
   19  NA 1 YY   -0.019006   0.000002  -0.000001   0.000000  -0.000000
   20  NA 1 ZZ    0.029483  -0.000004  -0.000000   0.000000  -0.000000
   21  NA 1 XY    0.000000  -0.000000   0.000000   0.000000  -0.019437
   22  NA 1 XZ    0.000000  -0.000000   0.000000  -0.000801  -0.000000
   23  NA 1 YZ   -0.000014  -0.124582   0.110703   0.000000  -0.000000
   24  O  2  S   -0.056401   0.000006   0.000000   0.000000  -0.000000
   25  O  2  S   -0.680795   0.000074   0.000003   0.000000  -0.000000
   26  O  2  X    0.000000  -0.000000   0.000000   0.010177   0.000000
   27  O  2  Y   -0.000015  -0.115757  -0.379606   0.000000  -0.000000
   28  O  2  Z   -0.193020   0.000022   0.000002   0.000000  -0.000000
   29  O  2  S    1.660957  -0.000177  -0.000002   0.000000  -0.000000
   30  O  2  X    0.000000  -0.000000   0.000000  -0.543087  -0.000005
   31  O  2  Y    0.000073   0.694546   0.564125   0.000000  -0.000000
   32  O  2  Z    0.728462  -0.000077   0.000001   0.000000  -0.000000
   33  O  2  S   -0.995374   0.000099  -0.000004   0.000000  -0.000000
   34  O  2  X    0.000000  -0.000000   0.000000   0.123455   0.000001
   35  O  2  Y    0.000009   0.036620  -0.868982   0.000000  -0.000000
   36  O  2  Z   -0.343749   0.000033  -0.000002   0.000000  -0.000000
   37  O  2 XX   -1.049233   0.000111   0.000001   0.000000  -0.000000
   38  O  2 YY    0.507154  -0.000053   0.000000   0.000000  -0.000000
   39  O  2 ZZ    0.002124   0.000002   0.000002   0.000000  -0.000000
   40  O  2 XY    0.000000  -0.000000   0.000000  -0.000008   0.903878
   41  O  2 XZ    0.000000  -0.000000   0.000000  -0.715308  -0.000006
   42  O  2 YZ   -0.000007  -0.063582   0.798800   0.000000  -0.000000
   43  H  3  S   -0.776754   0.210699   0.688754   0.000000  -0.000000
   44  H  3  S    0.335895   0.170378  -0.913818   0.000000  -0.000000
   45  H  3  S    0.198373  -0.029681  -0.270555   0.000000  -0.000000
   46  H  3  X    0.000000  -0.000000   0.000000   0.779891   0.728793
   47  H  3  Y    0.132098  -0.503337  -0.280551   0.000000  -0.000000
   48  H  3  Z   -0.186874  -0.564702   0.336598   0.000000  -0.000000
   49  H  4  S   -0.776798  -0.210538  -0.688756   0.000000  -0.000000
   50  H  4  S    0.335856  -0.170443   0.913821   0.000000  -0.000000
   51  H  4  S    0.198369   0.029642   0.270559   0.000000  -0.000000
   52  H  4  X    0.000000  -0.000000   0.000000   0.779903  -0.728779
   53  H  4  Y   -0.132210  -0.503305  -0.280545   0.000000  -0.000000
   54  H  4  Z   -0.186757   0.564744  -0.336594   0.000000  -0.000000

                     51         52         53         54
                    3.0530     3.3743     3.5487     4.1057
                     A          A          A          A   
    1  NA 1  S   -0.000605  -0.001421   0.000000  -0.002945
    2  NA 1  S    0.023899   0.021329  -0.000000   0.056791
    3  NA 1  X   -0.000000   0.000000  -0.000000  -0.000000
    4  NA 1  Y   -0.000000  -0.000000   0.002292   0.000000
    5  NA 1  Z    0.002797   0.008808  -0.000000  -0.006920
    6  NA 1  S    0.082671   0.117275  -0.000001   0.183265
    7  NA 1  X   -0.000000   0.000000  -0.000000  -0.000000
    8  NA 1  Y    0.000001  -0.000000  -0.036053   0.000000
    9  NA 1  Z    0.267174   0.061587  -0.000002  -0.114121
   10  NA 1  S   -0.005920  -0.077548  -0.000000   0.107577
   11  NA 1  X   -0.000000   0.000000  -0.000000  -0.000000
   12  NA 1  Y   -0.000000   0.000000  -0.008620  -0.000000
   13  NA 1  Z   -0.076343  -0.034181  -0.000000   0.181817
   14  NA 1  S   -0.007950  -0.058192   0.000000  -0.073425
   15  NA 1  X   -0.000000   0.000000  -0.000000  -0.000000
   16  NA 1  Y   -0.000000  -0.000000  -0.030826  -0.000000
   17  NA 1  Z    0.014884  -0.052151   0.000000  -0.093958
   18  NA 1 XX   -0.001356  -0.023407   0.000000   0.035618
   19  NA 1 YY    0.013586  -0.015955  -0.000000   0.041477
   20  NA 1 ZZ    0.176210  -0.000202  -0.000000  -0.245163
   21  NA 1 XY   -0.000000   0.000000  -0.000000  -0.000000
   22  NA 1 XZ   -0.000000   0.000000  -0.000000  -0.000000
   23  NA 1 YZ    0.000000  -0.000000  -0.055655  -0.000000
   24  O  2  S   -0.003464  -0.243947   0.000002  -0.491519
   25  O  2  S   -0.070488   0.184662  -0.000002  -0.338464
   26  O  2  X   -0.000000   0.000000  -0.000000  -0.000000
   27  O  2  Y    0.000004   0.000007   0.735992   0.000001
   28  O  2  Z   -0.063290   0.471313  -0.000003  -0.345905
   29  O  2  S    0.220072   3.192481  -0.000026   4.249911
   30  O  2  X   -0.000000   0.000000  -0.000000  -0.000000
   31  O  2  Y    0.000004   0.000008   1.598038   0.000005
   32  O  2  Z    0.652285   0.864939  -0.000006  -0.673436
   33  O  2  S   -0.002869  -0.257538   0.000004  -1.585993
   34  O  2  X   -0.000000   0.000000  -0.000000  -0.000000
   35  O  2  Y   -0.000003   0.000000  -0.261931  -0.000002
   36  O  2  Z    0.155896   0.075505  -0.000002   0.211834
   37  O  2 XX   -0.046252  -1.172214   0.000009  -1.432596
   38  O  2 YY   -0.829992   0.095892   0.000007  -2.299542
   39  O  2 ZZ    0.842642  -0.409553   0.000003  -1.879032
   40  O  2 XY   -0.000000   0.000000  -0.000000  -0.000000
   41  O  2 XZ   -0.000000   0.000000  -0.000000  -0.000000
   42  O  2 YZ    0.000005   0.000009   1.498243   0.000003
   43  H  3  S   -0.025436  -0.805290   1.314757   0.696548
   44  H  3  S   -0.231835  -0.786342   0.529684   0.060569
   45  H  3  S    0.010186   0.219799  -0.421039   0.175329
   46  H  3  X   -0.000000   0.000000  -0.000000  -0.000000
   47  H  3  Y   -0.485345  -0.797236   0.853787   0.595468
   48  H  3  Z   -0.713704   0.510856  -0.669631  -0.405937
   49  H  4  S   -0.025446  -0.805305  -1.314749   0.696541
   50  H  4  S   -0.231834  -0.786351  -0.529672   0.060568
   51  H  4  S    0.010192   0.219801   0.421037   0.175334
   52  H  4  X   -0.000000   0.000000  -0.000000  -0.000000
   53  H  4  Y    0.485354   0.797252   0.853772  -0.595466
   54  H  4  Z   -0.713699   0.510866   0.669630  -0.405935

  ----- BETA SET ----- 

          ------------
          EIGENVECTORS
          ------------

                      1          2          3          4          5
                  -38.4742   -19.1977    -2.2100    -1.1429    -1.1426
                     A          A          A          A          A   
    1  NA 1  S    0.997731  -0.000005  -0.246105  -0.000000  -0.000000
    2  NA 1  S    0.009999   0.000122   1.025818   0.000000  -0.000000
    3  NA 1  X    0.000000   0.000000   0.000000  -0.000000   0.995695
    4  NA 1  Y   -0.000000   0.000000  -0.000000   0.995622  -0.000000
    5  NA 1  Z    0.000008  -0.000025  -0.001070   0.000000  -0.000000
    6  NA 1  S    0.002598   0.000389  -0.003687   0.000000  -0.000000
    7  NA 1  X    0.000000   0.000000   0.000000  -0.000000   0.024666
    8  NA 1  Y    0.000000  -0.000000  -0.000000   0.025498  -0.000000
    9  NA 1  Z    0.001465  -0.000255  -0.005000   0.000000  -0.000000
   10  NA 1  S    0.000095   0.000246  -0.000428   0.000000  -0.000000
   11  NA 1  X    0.000000   0.000000   0.000000  -0.000000  -0.008899
   12  NA 1  Y    0.000000   0.000000   0.000000  -0.009681  -0.000000
   13  NA 1  Z    0.000350   0.000397  -0.000327  -0.000000  -0.000000
   14  NA 1  S    0.000213  -0.000171  -0.000552   0.000000  -0.000000
   15  NA 1  X    0.000000   0.000000   0.000000  -0.000000   0.002793
   16  NA 1  Y    0.000000   0.000000   0.000000   0.002633  -0.000000
   17  NA 1  Z   -0.000021  -0.000212  -0.000055   0.000000  -0.000000
   18  NA 1 XX   -0.000839   0.000073   0.001910  -0.000000  -0.000000
   19  NA 1 YY   -0.000811   0.000092   0.001951  -0.000000  -0.000000
   20  NA 1 ZZ   -0.000602  -0.000514   0.000008  -0.000000  -0.000000
   21  NA 1 XY    0.000000   0.000000   0.000000  -0.000000  -0.000000
   22  NA 1 XZ    0.000000   0.000000   0.000000  -0.000000  -0.000341
   23  NA 1 YZ    0.000000  -0.000000   0.000000   0.000070  -0.000000
   24  O  2  S   -0.000120   0.992625  -0.000064  -0.000000  -0.000000
   25  O  2  S   -0.000499   0.025597   0.001144   0.000000  -0.000000
   26  O  2  X    0.000000   0.000000   0.000000  -0.000000   0.000850
   27  O  2  Y    0.000000   0.000000   0.000000   0.000875  -0.000000
   28  O  2  Z    0.000096   0.001199  -0.000626   0.000000  -0.000000
   29  O  2  S    0.002469   0.013879  -0.003580   0.000000  -0.000000
   30  O  2  X    0.000000   0.000000   0.000000  -0.000000   0.000740
   31  O  2  Y    0.000000   0.000000  -0.000000   0.001243  -0.000000
   32  O  2  Z   -0.000674  -0.000839   0.000465   0.000000  -0.000000
   33  O  2  S   -0.001814  -0.002815   0.005220   0.000000  -0.000000
   34  O  2  X    0.000000   0.000000   0.000000  -0.000000  -0.000662
   35  O  2  Y   -0.000000   0.000000   0.000000  -0.003035  -0.000000
   36  O  2  Z    0.002820   0.000747  -0.006892   0.000000  -0.000000
   37  O  2 XX   -0.000338  -0.008466   0.000373  -0.000000  -0.000000
   38  O  2 YY   -0.000356  -0.008401   0.000514   0.000000  -0.000000
   39  O  2 ZZ   -0.000404  -0.008379   0.001077   0.000000  -0.000000
   40  O  2 XY    0.000000   0.000000   0.000000  -0.000000   0.000000
   41  O  2 XZ    0.000000   0.000000   0.000000  -0.000000  -0.000435
   42  O  2 YZ    0.000000   0.000000  -0.000000  -0.000442  -0.000000
   43  H  3  S    0.000051   0.000300  -0.000129  -0.000113  -0.000000
   44  H  3  S   -0.000529  -0.000859   0.000930  -0.000768  -0.000000
   45  H  3  S   -0.000535   0.000377   0.001178  -0.003870  -0.000000
   46  H  3  X    0.000000   0.000000   0.000000  -0.000000   0.000029
   47  H  3  Y    0.000006  -0.000096  -0.000048  -0.000105  -0.000000
   48  H  3  Z   -0.000064   0.000100   0.000137  -0.000036  -0.000000
   49  H  4  S    0.000051   0.000300  -0.000129   0.000113  -0.000000
   50  H  4  S   -0.000529  -0.000859   0.000930   0.000768  -0.000000
   51  H  4  S   -0.000535   0.000377   0.001178   0.003870  -0.000000
   52  H  4  X    0.000000   0.000000   0.000000  -0.000000   0.000029
   53  H  4  Y   -0.000006   0.000096   0.000048  -0.000105  -0.000000
   54  H  4  Z   -0.000064   0.000100   0.000137   0.000036  -0.000000

                      6          7          8          9         10
                   -1.1417    -1.0598    -0.5822    -0.4414    -0.3565
                     A          A          A          A          A   
    1  NA 1  S   -0.000178   0.001413  -0.000000  -0.008110  -0.000000
    2  NA 1  S    0.001810  -0.005031   0.000000   0.050059  -0.000000
    3  NA 1  X   -0.000000  -0.000000  -0.000000   0.000000  -0.014259
    4  NA 1  Y   -0.000000  -0.000000  -0.008009  -0.000000  -0.000000
    5  NA 1  Z    0.992096  -0.081101   0.000000   0.061291  -0.000000
    6  NA 1  S    0.013790   0.013255  -0.000001  -0.003362  -0.000000
    7  NA 1  X   -0.000000  -0.000000  -0.000000   0.000000  -0.000046
    8  NA 1  Y    0.000000   0.000001   0.000161   0.000001  -0.000000
    9  NA 1  Z    0.027053   0.004683   0.000000   0.012531  -0.000000
   10  NA 1  S   -0.002877   0.001038   0.000002   0.009749  -0.000000
   11  NA 1  X   -0.000000  -0.000000  -0.000000   0.000000  -0.000829
   12  NA 1  Y   -0.000000  -0.000000  -0.000588  -0.000000  -0.000000
   13  NA 1  Z   -0.008089   0.002867   0.000001   0.000049  -0.000000
   14  NA 1  S   -0.000406  -0.002061   0.000001  -0.001493  -0.000000
   15  NA 1  X   -0.000000  -0.000000  -0.000000   0.000000   0.001269
   16  NA 1  Y   -0.000000  -0.000000  -0.000264  -0.000000  -0.000000
   17  NA 1  Z    0.001652  -0.002281   0.000000   0.001224  -0.000000
   18  NA 1 XX   -0.002784  -0.000747   0.000000   0.003446  -0.000000
   19  NA 1 YY   -0.002601   0.000052   0.000000   0.002501  -0.000000
   20  NA 1 ZZ   -0.004321  -0.001352   0.000000   0.003505  -0.000000
   21  NA 1 XY   -0.000000  -0.000000  -0.000000   0.000000   0.000000
   22  NA 1 XZ   -0.000000  -0.000000  -0.000000   0.000000   0.000462
   23  NA 1 YZ    0.000000   0.000000  -0.000142   0.000000  -0.000000
   24  O  2  S   -0.016070  -0.212991   0.000000   0.071463  -0.000000
   25  O  2  S    0.032768   0.468556  -0.000000  -0.160528  -0.000000
   26  O  2  X   -0.000000  -0.000000  -0.000000   0.000000   0.642015
   27  O  2  Y   -0.000000  -0.000000   0.525925  -0.000000  -0.000000
   28  O  2  Z    0.000331   0.110088   0.000000   0.564710  -0.000000
   29  O  2  S    0.036678   0.441024   0.000002  -0.277492  -0.000000
   30  O  2  X   -0.000000  -0.000000  -0.000000   0.000000   0.421641
   31  O  2  Y   -0.000000  -0.000001   0.254982  -0.000001  -0.000000
   32  O  2  Z   -0.006911   0.027947   0.000001   0.345322  -0.000000
   33  O  2  S   -0.009060   0.001881   0.000010  -0.075256  -0.000000
   34  O  2  X   -0.000000  -0.000000  -0.000000   0.000000   0.127350
   35  O  2  Y   -0.000000  -0.000002   0.026661  -0.000003  -0.000000
   36  O  2  Z    0.007104   0.019741   0.000004   0.103479  -0.000000
   37  O  2 XX   -0.001902  -0.010002  -0.000000  -0.006131  -0.000000
   38  O  2 YY   -0.001410  -0.002021   0.000000  -0.004794  -0.000000
   39  O  2 ZZ    0.001506   0.001129   0.000000   0.024716  -0.000000
   40  O  2 XY   -0.000000  -0.000000  -0.000000   0.000000   0.000000
   41  O  2 XZ   -0.000000  -0.000000  -0.000000   0.000000   0.021823
   42  O  2 YZ   -0.000000  -0.000000   0.025222  -0.000000  -0.000000
   43  H  3  S    0.009418   0.153824  -0.244608   0.138663  -0.000000
   44  H  3  S   -0.000264  -0.003753  -0.100956   0.073612  -0.000000
   45  H  3  S    0.001448   0.003057  -0.006869  -0.002455  -0.000000
   46  H  3  X   -0.000000  -0.000000  -0.000000   0.000000   0.022300
   47  H  3  Y    0.001452   0.021730  -0.007622   0.012863  -0.000000
   48  H  3  Z   -0.000742  -0.012308   0.016033   0.008545  -0.000000
   49  H  4  S    0.009418   0.153825   0.244608   0.138663  -0.000000
   50  H  4  S   -0.000263  -0.003750   0.100946   0.073616  -0.000000
   51  H  4  S    0.001449   0.003061   0.006863  -0.002450  -0.000000
   52  H  4  X   -0.000000  -0.000000  -0.000000   0.000000   0.022300
   53  H  4  Y   -0.001452  -0.021730  -0.007621  -0.012863  -0.000000
   54  H  4  Z   -0.000742  -0.012308  -0.016033   0.008545  -0.000000

                     11         12         13         14         15
                   -0.0566    -0.0230    -0.0061    -0.0003     0.0122
                     A          A          A          A          A   
    1  NA 1  S   -0.025772   0.019408   0.000000   0.000000  -0.013738
    2  NA 1  S    0.150176  -0.123406  -0.000000   0.000000   0.105839
    3  NA 1  X    0.000000   0.000000   0.000000  -0.052792   0.000000
    4  NA 1  Y    0.000000  -0.000000   0.052949   0.000000  -0.000000
    5  NA 1  Z   -0.004661   0.052187   0.000000   0.000000   0.003327
    6  NA 1  S   -0.253912   0.082360   0.000002   0.000000   0.173880
    7  NA 1  X    0.000000   0.000000   0.000000   0.106398   0.000000
    8  NA 1  Y    0.000001   0.000001  -0.118698   0.000000   0.000001
    9  NA 1  Z    0.030481  -0.145650  -0.000001   0.000000  -0.021715
   10  NA 1  S   -0.279501   0.837816  -0.000005   0.000000  -1.149204
   11  NA 1  X    0.000000   0.000000   0.000000   0.271224   0.000000
   12  NA 1  Y   -0.000002  -0.000003  -0.167689   0.000000  -0.000001
   13  NA 1  Z    0.024446   0.095006  -0.000004   0.000000  -0.030464
   14  NA 1  S   -0.165908  -0.083018   0.000001   0.000000   1.626400
   15  NA 1  X    0.000000   0.000000   0.000000   0.749375   0.000000
   16  NA 1  Y    0.000000   0.000001  -0.589621   0.000000  -0.000006
   17  NA 1  Z   -0.049326  -0.335900  -0.000004   0.000000   0.028568
   18  NA 1 XX   -0.011670   0.035169  -0.000000   0.000000  -0.062659
   19  NA 1 YY   -0.017663   0.035893  -0.000000   0.000000  -0.067564
   20  NA 1 ZZ   -0.000249   0.012013  -0.000001   0.000000  -0.064272
   21  NA 1 XY    0.000000   0.000000   0.000000  -0.000000   0.000000
   22  NA 1 XZ    0.000000   0.000000   0.000000  -0.008192   0.000000
   23  NA 1 YZ    0.000000   0.000000  -0.001881   0.000000   0.000000
   24  O  2  S   -0.050571  -0.023381  -0.000000   0.000000  -0.021833
   25  O  2  S    0.117672   0.056040   0.000001   0.000000   0.056840
   26  O  2  X    0.000000   0.000000   0.000000  -0.067086   0.000000
   27  O  2  Y   -0.000000  -0.000001   0.102511   0.000000  -0.000001
   28  O  2  Z    0.043089   0.138114   0.000000   0.000000   0.003938
   29  O  2  S    0.359122   0.194605  -0.000001   0.000000   0.144938
   30  O  2  X    0.000000   0.000000   0.000000  -0.062442   0.000000
   31  O  2  Y    0.000000  -0.000000   0.089284   0.000000  -0.000001
   32  O  2  Z    0.061282   0.133542  -0.000001   0.000000   0.015911
   33  O  2  S    0.361928   0.409634  -0.000009   0.000000   0.299330
   34  O  2  X    0.000000   0.000000   0.000000   0.038256   0.000000
   35  O  2  Y   -0.000003  -0.000006   0.088822   0.000000  -0.000005
   36  O  2  Z    0.063020   0.045891  -0.000005   0.000000   0.019172
   37  O  2 XX   -0.007589  -0.005285   0.000000   0.000000  -0.000654
   38  O  2 YY   -0.010235  -0.007527  -0.000000   0.000000  -0.002942
   39  O  2 ZZ   -0.007168   0.002613   0.000000   0.000000  -0.001728
   40  O  2 XY    0.000000   0.000000   0.000000  -0.000000   0.000000
   41  O  2 XZ    0.000000   0.000000   0.000000  -0.003501   0.000000
   42  O  2 YZ    0.000000   0.000000   0.003897   0.000000   0.000000
   43  H  3  S   -0.033832  -0.015960  -0.007759   0.000000  -0.018885
   44  H  3  S   -0.233991  -0.202540   0.087006   0.000000  -0.124604
   45  H  3  S   -0.311424  -0.515457   0.762129   0.000000  -0.235474
   46  H  3  X    0.000000   0.000000   0.000000  -0.000694   0.000000
   47  H  3  Y    0.008235   0.008243  -0.004389   0.000000   0.003135
   48  H  3  Z   -0.005402  -0.004178   0.003233   0.000000  -0.002084
   49  H  4  S   -0.033832  -0.015960   0.007759   0.000000  -0.018885
   50  H  4  S   -0.233989  -0.202535  -0.086996   0.000000  -0.124598
   51  H  4  S   -0.311408  -0.515420  -0.762123   0.000000  -0.235432
   52  H  4  X    0.000000   0.000000   0.000000  -0.000694   0.000000
   53  H  4  Y   -0.008235  -0.008243  -0.004390   0.000000  -0.003135
   54  H  4  Z   -0.005402  -0.004177  -0.003233   0.000000  -0.002084

                     16         17         18         19         20
                    0.0199     0.0267     0.0323     0.0324     0.0418
                     A          A          A          A          A   
    1  NA 1  S    0.007000  -0.000000   0.000000   0.000000   0.002384
    2  NA 1  S   -0.041599   0.000000   0.000000   0.000000  -0.057957
    3  NA 1  X   -0.000000   0.000000  -0.081294  -0.000000   0.000000
    4  NA 1  Y    0.000001  -0.025365   0.000000  -0.086341  -0.000001
    5  NA 1  Z    0.023192  -0.000001   0.000000   0.000001  -0.054777
    6  NA 1  S    0.061782  -0.000009   0.000000   0.000010  -0.382713
    7  NA 1  X   -0.000000   0.000000   0.111781  -0.000000   0.000000
    8  NA 1  Y   -0.000000   0.031337   0.000000   0.122431   0.000003
    9  NA 1  Z   -0.031581   0.000003   0.000000  -0.000003   0.021324
   10  NA 1  S    0.506175   0.000016   0.000000  -0.000026   1.360188
   11  NA 1  X   -0.000000   0.000000   1.157867  -0.000000   0.000000
   12  NA 1  Y   -0.000010   0.284539   0.000000   1.246360   0.000020
   13  NA 1  Z   -0.112883   0.000027   0.000000  -0.000041   1.968934
   14  NA 1  S    0.204523  -0.000014   0.000000   0.000001   0.241760
   15  NA 1  X   -0.000000   0.000000  -1.059083  -0.000000   0.000000
   16  NA 1  Y   -0.000018  -1.011462   0.000000  -0.564455  -0.000000
   17  NA 1  Z    1.240373  -0.000032   0.000000   0.000021  -0.374630
   18  NA 1 XX    0.017525   0.000001   0.000000  -0.000002   0.053648
   19  NA 1 YY    0.013845   0.000001   0.000000  -0.000002   0.054748
   20  NA 1 ZZ   -0.007803   0.000002   0.000000  -0.000001  -0.006140
   21  NA 1 XY   -0.000000   0.000000  -0.000000  -0.000000   0.000000
   22  NA 1 XZ   -0.000000   0.000000  -0.003845  -0.000000   0.000000
   23  NA 1 YZ    0.000001   0.017600   0.000000  -0.020214  -0.000000
   24  O  2  S   -0.023006   0.000001   0.000000  -0.000001   0.012192
   25  O  2  S    0.063418  -0.000004   0.000000   0.000003  -0.025310
   26  O  2  X   -0.000000   0.000000  -0.071186  -0.000000   0.000000
   27  O  2  Y   -0.000004  -0.145337   0.000000   0.076947   0.000003
   28  O  2  Z    0.094217  -0.000002   0.000000   0.000001   0.085321
   29  O  2  S    0.169378  -0.000002   0.000000  -0.000000  -0.095870
[...]
   36. RY ( 6) O  2             0.00000     1.09639
   37. RY ( 7) O  2             0.00000     1.38713
   38. RY ( 8) O  2             0.00000     1.71171
   39. RY ( 9) O  2             0.00000     0.42475
   40. RY (10) O  2             0.00000     1.80461
   41. RY (11) O  2             0.00000     1.45590
   42. RY (12) O  2             0.00000     0.91855
   43. RY (13) O  2             0.00000     2.05503
   44. RY (14) O  2             0.00000     1.17251
   45. RY ( 1) H  3             0.00035     2.37259
   46. RY ( 2) H  3             0.00018     2.46016
   47. RY ( 3) H  3             0.00001     0.54766
   48. RY ( 4) H  3             0.00000     1.70604
   49. RY ( 5) H  3             0.00000     1.78573
   50. RY ( 1) H  4             0.00035     2.37259
   51. RY ( 2) H  4             0.00018     2.46010
   52. RY ( 3) H  4             0.00001     0.54797
   53. RY ( 4) H  4             0.00000     1.70493
   54. RY ( 5) H  4             0.00000     1.78659
          -------------------------------
                 Total Lewis    4.99053  ( 99.9771%)
           Valence non-Lewis    0.00004  (  0.0008%)
           Rydberg non-Lewis    0.00110  (  0.0221%)
          -------------------------------
               Total unit  2    4.99167  (100.0000%)
              Charge unit  2    0.00833

 $CHOOSE
  ALPHA
   LONE 1 1 2 2 END
   BOND S 2 3 S 2 4 END
  END
  BETA
   LONE 2 2 END
   BOND S 2 3 S 2 4 END
  END
 $END

 NBO analysis completed in 0.10 CPU seconds (0 wall seconds)
 Maximum scratch memory used by NBO was 403751 words (3.08 MB)

  ---------- Alpha spin NBO deletions ----------

 NEDA: Natural Energy Decomposition Analysis
 Deletion of the NBO Fock matrix elements between orbitals:
    1   2   3   4   5   7  14  15  16  17  18  19  20  21  22  23  24  25  26  27
   28  29  30
 and orbitals:
    6   8   9  10  11  12  13  31  32  33  34  35  36  37  38  39  40  41  42  43
   44  45  46  47  48  49  50  51  52  53  54

 Orbital occupancies:

       Orbital                         No deletions  This deletion    Change
 ------------------------------------------------------------------------------
    1. CR ( 1)Na  1                      1.00000        1.00000       0.00000
    2. CR ( 2)Na  1                      1.00000        1.00000       0.00000
    3. CR ( 3)Na  1                      1.00000        1.00000       0.00000
    4. CR ( 4)Na  1                      1.00000        1.00000       0.00000
    5. CR ( 5)Na  1                      0.99998        1.00000       0.00002
    6. CR ( 1) O  2                      1.00000        1.00000       0.00000
    7. LP ( 1)Na  1                      0.96777        0.99867       0.03089
    8. LP ( 1) O  2                      0.99947        0.99962       0.00016
    9. LP ( 2) O  2                      0.99927        0.99930       0.00002
   10. BD ( 1) O  2- H  3                0.99987        0.99992       0.00005
   11. BD ( 1) O  2- H  4                0.99987        0.99992       0.00005
   12. BD*( 1) O  2- H  3                0.00845        0.00004      -0.00841
   13. BD*( 1) O  2- H  4                0.00845        0.00004      -0.00841
   14. RY ( 1)Na  1                      0.00019        0.00078       0.00059
   15. RY ( 2)Na  1                      0.00003        0.00000      -0.00003
   16. RY ( 3)Na  1                      0.00003        0.00000      -0.00003
   17. RY ( 4)Na  1                      0.00002        0.00001      -0.00001
   18. RY ( 5)Na  1                      0.00000        0.00000       0.00000
   19. RY ( 6)Na  1                      0.00000        0.00000       0.00000
   20. RY ( 7)Na  1                      0.00000        0.00003       0.00003
   21. RY ( 8)Na  1                      0.00000        0.00000       0.00000
   22. RY ( 9)Na  1                      0.00000        0.00000       0.00000
   23. RY (10)Na  1                      0.00000        0.00000       0.00000
   24. RY (11)Na  1                      0.00000        0.00051       0.00050
   25. RY (12)Na  1                      0.00000        0.00000       0.00000
   26. RY (13)Na  1                      0.00000        0.00000       0.00000
   27. RY (14)Na  1                      0.00000        0.00000       0.00000
   28. RY (15)Na  1                      0.00000        0.00000       0.00000
   29. RY (16)Na  1                      0.00000        0.00001       0.00001
   30. RY (17)Na  1                      0.00000        0.00001       0.00001
   31. RY ( 1) O  2                      0.01144        0.00006      -0.01138
   32. RY ( 2) O  2                      0.00001        0.00000      -0.00001
   33. RY ( 3) O  2                      0.00000        0.00000       0.00000
   34. RY ( 4) O  2                      0.00000        0.00000       0.00000
   35. RY ( 5) O  2                      0.00000        0.00000       0.00000
   36. RY ( 6) O  2                      0.00000        0.00000       0.00000
   37. RY ( 7) O  2                      0.00000        0.00000       0.00000
   38. RY ( 8) O  2                      0.00000        0.00000       0.00000
   39. RY ( 9) O  2                      0.00000        0.00000       0.00000
   40. RY (10) O  2                      0.00000        0.00000       0.00000
   41. RY (11) O  2                      0.00000        0.00000       0.00000
   42. RY (12) O  2                      0.00000        0.00000       0.00000
   43. RY (13) O  2                      0.00000        0.00000       0.00000
   44. RY (14) O  2                      0.00000        0.00000       0.00000
   45. RY ( 1) H  3                      0.00204        0.00002      -0.00203
   46. RY ( 2) H  3                      0.00035        0.00035       0.00000
   47. RY ( 3) H  3                      0.00018        0.00018       0.00000
   48. RY ( 4) H  3                      0.00001        0.00000       0.00000
   49. RY ( 5) H  3                      0.00000        0.00000       0.00000
   50. RY ( 1) H  4                      0.00204        0.00002      -0.00203
   51. RY ( 2) H  4                      0.00035        0.00035       0.00000
   52. RY ( 3) H  4                      0.00018        0.00018       0.00000
   53. RY ( 4) H  4                      0.00001        0.00000       0.00000
   54. RY ( 5) H  4                      0.00000        0.00000       0.00000

  ---------- Beta spin NBO deletions ----------

 NEDA: Natural Energy Decomposition Analysis
 Deletion of the NBO Fock matrix elements between orbitals:
    1   2   3   4   5  11  14  15  16  17  18  19  20  21  22  23  24  25  26  27
   28  29  30
 and orbitals:
    6   7   8   9  10  12  13  31  32  33  34  35  36  37  38  39  40  41  42  43
   44  45  46  47  48  49  50  51  52  53  54

 Orbital occupancies:

       Orbital                         No deletions  This deletion    Change
 ------------------------------------------------------------------------------
    1. CR ( 1)Na  1                      1.00000        1.00000       0.00000
    2. CR ( 2)Na  1                      1.00000        1.00000       0.00000
    3. CR ( 3)Na  1                      1.00000        1.00000       0.00000
    4. CR ( 4)Na  1                      1.00000        1.00000       0.00000
    5. CR ( 5)Na  1                      0.99998        1.00000       0.00002
    6. CR ( 1) O  2                      1.00000        1.00000       0.00000
    7. LP ( 1) O  2                      0.99929        0.99930       0.00001
    8. LP ( 2) O  2                      0.99217        0.99967       0.00750
    9. BD ( 1) O  2- H  3                0.99953        0.99993       0.00039
   10. BD ( 1) O  2- H  4                0.99953        0.99993       0.00039
   11. LV ( 1)Na  1                      0.00828        0.00000      -0.00828
   12. BD*( 1) O  2- H  3                0.00002        0.00004       0.00002
   13. BD*( 1) O  2- H  4                0.00002        0.00004       0.00002
   14. RY ( 1)Na  1                      0.00004        0.00000      -0.00004
   15. RY ( 2)Na  1                      0.00002        0.00000      -0.00002
   16. RY ( 3)Na  1                      0.00001        0.00000      -0.00001
   17. RY ( 4)Na  1                      0.00000        0.00000       0.00000
   18. RY ( 5)Na  1                      0.00000        0.00000       0.00000
   19. RY ( 6)Na  1                      0.00000        0.00000       0.00000
   20. RY ( 7)Na  1                      0.00000        0.00000       0.00000
   21. RY ( 8)Na  1                      0.00000        0.00000       0.00000
   22. RY ( 9)Na  1                      0.00000        0.00000       0.00000
   23. RY (10)Na  1                      0.00000        0.00000       0.00000
   24. RY (11)Na  1                      0.00000        0.00000       0.00000
   25. RY (12)Na  1                      0.00000        0.00000       0.00000
   26. RY (13)Na  1                      0.00000        0.00000       0.00000
   27. RY (14)Na  1                      0.00000        0.00000       0.00000
   28. RY (15)Na  1                      0.00000        0.00000       0.00000
   29. RY (16)Na  1                      0.00000        0.00000       0.00000
   30. RY (17)Na  1                      0.00000        0.00000       0.00000
   31. RY ( 1) O  2                      0.00002        0.00000      -0.00002
   32. RY ( 2) O  2                      0.00000        0.00000       0.00000
   33. RY ( 3) O  2                      0.00000        0.00000       0.00000
   34. RY ( 4) O  2                      0.00000        0.00000       0.00000
   35. RY ( 5) O  2                      0.00000        0.00000       0.00000
   36. RY ( 6) O  2                      0.00000        0.00000       0.00000
   37. RY ( 7) O  2                      0.00000        0.00000       0.00000
   38. RY ( 8) O  2                      0.00000        0.00000       0.00000
   39. RY ( 9) O  2                      0.00000        0.00000       0.00000
   40. RY (10) O  2                      0.00000        0.00000       0.00000
   41. RY (11) O  2                      0.00000        0.00000       0.00000
   42. RY (12) O  2                      0.00000        0.00000       0.00000
   43. RY (13) O  2                      0.00000        0.00000       0.00000
   44. RY (14) O  2                      0.00000        0.00000       0.00000
   45. RY ( 1) H  3                      0.00035        0.00035       0.00000
   46. RY ( 2) H  3                      0.00018        0.00018       0.00000
   47. RY ( 3) H  3                      0.00001        0.00001       0.00000
   48. RY ( 4) H  3                      0.00000        0.00000       0.00000
   49. RY ( 5) H  3                      0.00000        0.00000       0.00000
   50. RY ( 1) H  4                      0.00035        0.00035       0.00000
   51. RY ( 2) H  4                      0.00018        0.00018       0.00000
   52. RY ( 3) H  4                      0.00001        0.00001       0.00000
   53. RY ( 4) H  4                      0.00000        0.00000       0.00000
   54. RY ( 5) H  4                      0.00000        0.00000       0.00000

 NEXT STEP:  Perform one SCF cycle to evaluate the energy of the new density
             matrix constructed from the deleted NBO Fock matrix.

 ------------------------------------------------------------------------------

          ---------------------------
              U-B3LYP SCF CALCULATION
          ---------------------------
         DENSITY MATRIX CONVERGENCE THRESHOLD=  1.00E-05
     COARSE -> FINE DFT GRID SWITCH THRESHOLD=  3.00E-04 (SWITCH IN $DFT)
                   HF -> DFT SWITCH THRESHOLD=  0.00E+00 (SWOFF IN $DFT)

 ITER EX      TOTAL ENERGY        E CHANGE  DENSITY CHANGE    DIIS ERROR
   1  0     -238.6319118619  -238.6319118619   0.151092494   0.000000000

 SCF IS UNCONVERGED, TOO MANY ITERATIONS
     TIME TO FORM FOCK OPERATORS=       0.8 SECONDS (       0.8 SEC/ITER)
     TIME TO SOLVE SCF EQUATIONS=       0.0 SECONDS (       0.0 SEC/ITER)

 FINAL U-B3LYP ENERGY IS        0.0000000000 AFTER   1 ITERATIONS
 DFT EXCHANGE + CORRELATION ENERGY =       -19.1098658936
 TOTAL ELECTRON NUMBER             =        21.0001730872

          --------------------
          SPIN SZ   =    0.500
          S-SQUARED =    0.750
          --------------------
 ...... END OF UHF CALCULATION ......
 STEP CPU TIME =     0.97 TOTAL CPU TIME =          7.9 (      0.1 MIN)
 TOTAL WALL CLOCK TIME=          7.9 SECONDS, CPU UTILIZATION IS   100.13%

 ------------------------------------------------------------------------------
   Energy of deletion :       -238.631911862
     Total SCF energy :       -238.646229797
                          -------------------
        Energy change :          0.014318 a.u.,           8.985 kcal/mol
 ------------------------------------------------------------------------------

 --------------
  Fragment  1:
 --------------

 ...... END OF ONE-ELECTRON INTEGRALS ......
 STEP CPU TIME =     0.02 TOTAL CPU TIME =          7.9 (      0.1 MIN)
 TOTAL WALL CLOCK TIME=          7.9 SECONDS, CPU UTILIZATION IS   100.13%

          ---------------------------
              U-B3LYP SCF CALCULATION
          ---------------------------
         DENSITY MATRIX CONVERGENCE THRESHOLD=  1.00E-05
     COARSE -> FINE DFT GRID SWITCH THRESHOLD=  3.00E-04 (SWITCH IN $DFT)
                   HF -> DFT SWITCH THRESHOLD=  0.00E+00 (SWOFF IN $DFT)

 ITER EX      TOTAL ENERGY        E CHANGE  DENSITY CHANGE    DIIS ERROR
          * * *   INITIATING DIIS PROCEDURE   * * *
   1  0     -162.1963896456  -162.1963896456   0.053279951   0.208252107
   2  1     -162.2381049012    -0.0417152556   0.009979069   0.004619364
   3  2     -162.2383831346    -0.0002782334   0.005130401   0.001165577
   4  3     -162.2384008134    -0.0000176788   0.000912833   0.000118536
   5  4     -162.2384009953    -0.0000001819   0.000250210   0.000021698
   6  5     -162.2384010003    -0.0000000050   0.000035793   0.000002152
   7  6     -162.2384010000     0.0000000003   0.000003141   0.000000202
   8  7     -162.2384010000     0.0000000000   0.000000134   0.000000014

          -----------------
          DENSITY CONVERGED
          -----------------
     TIME TO FORM FOCK OPERATORS=       5.3 SECONDS (       0.7 SEC/ITER)
     TIME TO SOLVE SCF EQUATIONS=       0.0 SECONDS (       0.0 SEC/ITER)

 FINAL U-B3LYP ENERGY IS     -162.2384010000 AFTER   8 ITERATIONS
 DFT EXCHANGE + CORRELATION ENERGY =       -11.5798683684
 TOTAL ELECTRON NUMBER             =        11.0000007943

          --------------------
          SPIN SZ   =    0.500
          S-SQUARED =    0.750
          --------------------
 ...... END OF UHF CALCULATION ......
 STEP CPU TIME =     5.40 TOTAL CPU TIME =         13.3 (      0.2 MIN)
 TOTAL WALL CLOCK TIME=         13.3 SECONDS, CPU UTILIZATION IS   100.08%
 ...... END OF ONE-ELECTRON INTEGRALS ......
 STEP CPU TIME =     0.00 TOTAL CPU TIME =         13.3 (      0.2 MIN)
 TOTAL WALL CLOCK TIME=         13.3 SECONDS, CPU UTILIZATION IS   100.08%

 Dipole (def):    0.0000(x),   0.0000(y),   0.8554(z);   0.8554(tot) Debye
 Dipole (rel):    0.0000(x),   0.0000(y),  -0.0068(z);   0.0068(tot) Debye
 Dipole (ind):    0.0000(x),   0.0000(y),   0.8622(z);   0.8622(tot) Debye

 --------------
  Fragment  2:
 --------------

 ...... END OF ONE-ELECTRON INTEGRALS ......
 STEP CPU TIME =     0.02 TOTAL CPU TIME =         13.3 (      0.2 MIN)
 TOTAL WALL CLOCK TIME=         13.3 SECONDS, CPU UTILIZATION IS   100.08%

          ---------------------------
              U-B3LYP SCF CALCULATION
          ---------------------------
         DENSITY MATRIX CONVERGENCE THRESHOLD=  1.00E-05
     COARSE -> FINE DFT GRID SWITCH THRESHOLD=  3.00E-04 (SWITCH IN $DFT)
                   HF -> DFT SWITCH THRESHOLD=  0.00E+00 (SWOFF IN $DFT)

 ITER EX      TOTAL ENERGY        E CHANGE  DENSITY CHANGE    DIIS ERROR
          * * *   INITIATING DIIS PROCEDURE   * * *
   1  0      -76.3367329574   -76.3367329574   0.058968264   0.428333936
   2  1      -76.3965173906    -0.0597844332   0.037722912   0.025470787
   3  2      -76.3954084006     0.0011089899   0.024463824   0.033048405
   4  3      -76.3975515734    -0.0021431727   0.001143626   0.001794554
   5  4      -76.3975583423    -0.0000067689   0.000075817   0.000064915
   6  5      -76.3975583600    -0.0000000177   0.000017404   0.000012269
   7  6      -76.3975583607    -0.0000000007   0.000008954   0.000004336
   8  7      -76.3975583608    -0.0000000001   0.000000752   0.000000341

          -----------------
          DENSITY CONVERGED
          -----------------
     TIME TO FORM FOCK OPERATORS=       5.4 SECONDS (       0.7 SEC/ITER)
     TIME TO SOLVE SCF EQUATIONS=       0.0 SECONDS (       0.0 SEC/ITER)

 FINAL U-B3LYP ENERGY IS      -76.3975583608 AFTER   8 ITERATIONS
 DFT EXCHANGE + CORRELATION ENERGY =        -7.5075643706
 TOTAL ELECTRON NUMBER             =        10.0001731251

          --------------------
          SPIN SZ   =    0.000
          S-SQUARED =    0.000
          --------------------
 ...... END OF UHF CALCULATION ......
 STEP CPU TIME =     5.42 TOTAL CPU TIME =         18.7 (      0.3 MIN)
 TOTAL WALL CLOCK TIME=         18.7 SECONDS, CPU UTILIZATION IS   100.05%
 ...... END OF ONE-ELECTRON INTEGRALS ......
 STEP CPU TIME =     0.00 TOTAL CPU TIME =         18.7 (      0.3 MIN)
 TOTAL WALL CLOCK TIME=         18.7 SECONDS, CPU UTILIZATION IS   100.05%

 Dipole (def):    0.0000(x),   0.0000(y),   2.4363(z);   2.4363(tot) Debye
 Dipole (rel):    0.0000(x),   0.0000(y),   2.0069(z);   2.0069(tot) Debye
 Dipole (ind):    0.0000(x),   0.0000(y),   0.4294(z);   0.4294(tot) Debye


 Natural Energy Decomposition Analysis (Summary):

                                                            Component
                    Energy(wfn)        Energy(wfn)          (kcal/mol)
 ------------------------------------------------------------------------------
 H2ONa          -238.6462298(scf)  -238.6319119(loc)      CT =   -8.985
                                                          ES =  -23.163
                                                         POL =  -27.038
                                                          XC =  -11.790
 1. Na          -162.1963896(def)  -162.2384010(rel) DEF(SE) =   26.363(  2.410)
 2. H2O          -76.3367330(def)   -76.3975584(rel) DEF(SE) =   38.169( 11.340)
                                                              ---------
                                                           E =   -6.445


 Electrical (ES+POL+SE) :    -36.451
   Charge Transfer (CT) :     -8.985
       Core (XC+DEF-SE) :     38.991
                        ------------
  Total Interaction (E) :     -6.445

 ..... done with NBO analysis .....
 STEP CPU TIME =     0.05 TOTAL CPU TIME =         18.8 (      0.3 MIN)
 TOTAL WALL CLOCK TIME=         18.8 SECONDS, CPU UTILIZATION IS   100.05%
               580000  WORDS OF DYNAMIC MEMORY USED
 EXECUTION OF GAMESS TERMINATED NORMALLY Thu Apr 18 14:30:50 2019
 DDI: 263640 bytes (0.3 MB / 0 MWords) used by master data server.

 ----------------------------------------
 CPU timing information for all processes
 ========================================
 0: 18.542 + 0.88 = 18.630
 ----------------------------------------
Note: The following floating-point exceptions are signalling: IEEE_UNDERFLOW_FLAG IEEE_DENORMAL
 ddikick.x: exited gracefully.
unset echo
----- accounting info -----
Files used on the master node neutron were:
-rw-rw-r-- 1 ericg ericg  380458 Apr 18 14:30 /home/ericg/scr/h2nao_b3lyp.dat
-rw-rw-r-- 1 ericg ericg     454 Apr 18 14:30 /home/ericg/scr/h2nao_b3lyp.F05
-rw-rw-r-- 1 ericg ericg 5760512 Apr 18 14:30 /home/ericg/scr/h2nao_b3lyp.F08
-rw-rw-r-- 1 ericg ericg 1897760 Apr 18 14:30 /home/ericg/scr/h2nao_b3lyp.F10
ls: No match.
ls: No match.
ls: No match.
Thu Apr 18 14:30:53 EDT 2019
0.102u 0.027s 0:21.93 0.5%	0+0k 8+16io 0pf+0w
