----- GAMESS execution script 'rungms' -----
This job is running on host neutron
under operating system Linux at Thu Apr 18 14:30:57 EDT 2019
Available scratch disk space (Kbyte units) at beginning of the job is
Filesystem     1K-blocks      Used Available Use% Mounted on
/dev/sda2      236432240 131182332  93170140  59% /
GAMESS temporary binary files will be written to /home/ericg/scr
GAMESS supplementary output files will be written to /home/ericg/scr
Copying input file tutdel.inp to your run's scratch directory...
cp -i tutdel.inp /home/ericg/scr/tutdel.F05
unset echo
/opt/gamess/ddikick.x /opt/gamess/gamess.00.x tutdel -ddi 1 1 neutron -scr /home/ericg/scr

 Distributed Data Interface kickoff program.
 Initiating 1 compute processes on 1 nodes to run the following command:
 /opt/gamess/gamess.00.x tutdel 

          ******************************************************
          *         GAMESS VERSION = 30 SEP 2018 (R3)         *
          *             FROM IOWA STATE UNIVERSITY             *
          * M.W.SCHMIDT, K.K.BALDRIDGE, J.A.BOATZ, S.T.ELBERT, *
          *   M.S.GORDON, J.H.JENSEN, S.KOSEKI, N.MATSUNAGA,   *
          *          K.A.NGUYEN, S.J.SU, T.L.WINDUS,           *
          *       TOGETHER WITH M.DUPUIS, J.A.MONTGOMERY       *
          *         J.COMPUT.CHEM.  14, 1347-1363(1993)        *
          **************** 64 BIT LINUX VERSION ****************

  SINCE 1993, STUDENTS AND POSTDOCS WORKING AT IOWA STATE UNIVERSITY
  AND ALSO IN THEIR VARIOUS JOBS AFTER LEAVING ISU HAVE MADE IMPORTANT
  CONTRIBUTIONS TO THE CODE:
     IVANA ADAMOVIC, CHRISTINE AIKENS, YURI ALEXEEV, POOJA ARORA,
     ANDREY ASADCHEV, ROB BELL, PRADIPTA BANDYOPADHYAY, JONATHAN BENTZ,
     BRETT BODE, KURT BRORSEN, CALEB CARLIN, GALINA CHABAN, WEI CHEN,
     CHEOL HO CHOI, PAUL DAY, ALBERT DEFUSCO, NUWAN DESILVA, TIM DUDLEY,
     DMITRI FEDOROV, ALEX FINDLATER, GRAHAM FLETCHER, MARK FREITAG,
     KURT GLAESEMANN, ANASTASIA GUNINA,
     DAN KEMP, GRANT MERRILL, NORIYUKI MINEZAWA, JONATHAN MULLIN,
     TAKESHI NAGATA, SEAN NEDD, HEATHER NETZLOFF, BOSILJKA NJEGIC, RYAN OLSON,
     MIKE PAK, BUU PHAM,
     SPENCER PRUITT, LUKE ROSKOP, JIM SHOEMAKER, LYUDMILA SLIPCHENKO,
     TONY SMITH, SAROM SOK LEANG, JIE SONG, TETSUYA TAKETSUGU, SIMON WEBB,
     PENG XU, SOOHAENG YOO, FEDERICO ZAHARIEV

  ADDITIONAL CODE HAS BEEN PROVIDED BY COLLABORATORS IN OTHER GROUPS:
     IOWA STATE UNIVERSITY:
          JOE IVANIC, AARON WEST, LAIMUTIS BYTAUTAS, KLAUS RUEDENBERG
     UNIVERSITY OF TOKYO: KIMIHIKO HIRAO, TAKAHITO NAKAJIMA,
          TAKAO TSUNEDA, MUNEAKI KAMIYA, SUSUMU YANAGISAWA,
          KIYOSHI YAGI, MAHITO CHIBA, SEIKEN TOKURA, NAOAKI KAWAKAMI
     UNIVERSITY OF AARHUS: FRANK JENSEN
     UNIVERSITY OF IOWA: VISVALDAS KAIRYS, HUI LI
     NATIONAL INST. OF STANDARDS AND TECHNOLOGY: WALT STEVENS, DAVID GARMER
     UNIVERSITY OF PISA: BENEDETTA MENNUCCI, JACOPO TOMASI
     UNIVERSITY OF MEMPHIS: HENRY KURTZ, PRAKASHAN KORAMBATH
     UNIVERSITY OF ALBERTA: TOBY ZENG, MARIUSZ KLOBUKOWSKI
     UNIVERSITY OF NEW ENGLAND: MARK SPACKMAN
     MIE UNIVERSITY: HIROAKI UMEDA
     NAT. INST. OF ADVANCED INDUSTRIAL SCIENCE AND TECHNOLOGY: KAZUO KITAURA
     MICHIGAN STATE UNIVERSITY:
          KAROL KOWALSKI, MARTA WLOCH, JEFFREY GOUR, JESSE LUTZ,
          WEI LI, JUN SHEN, J. EMILIANO DEUSTUA, PIOTR PIECUCH
     UNIVERSITY OF MINNESOTA:
          YINAN SHU
     UNIVERSITY OF SILESIA: MONIKA MUSIAL, STANISLAW KUCHARSKI
     FACULTES UNIVERSITAIRES NOTRE-DAME DE LA PAIX:
          OLIVIER QUINET, BENOIT CHAMPAGNE
     UNIVERSITY OF CALIFORNIA - SANTA BARBARA: BERNARD KIRTMAN
     INSTITUTE FOR MOLECULAR SCIENCE:
          KAZUYA ISHIMURA, MICHIO KATOUDA, AND SHIGERU NAGASE
     UNIVERSITY OF NOTRE DAME: ANNA POMOGAEVA, DAN CHIPMAN
     KYUSHU UNIVERSITY:
          HARUYUKI NAKANO,
          FENG LONG GU, JACEK KORCHOWIEC, MARCIN MAKOWSKI, AND YURIKO AOKI,
          HIROTOSHI MORI AND EISAKU MIYOSHI
     PENNSYLVANIA STATE UNIVERSITY:
          TZVETELIN IORDANOV, CHET SWALINA, JONATHAN SKONE,
          SHARON HAMMES-SCHIFFER
     WASEDA UNIVERSITY:
          MASATO KOBAYASHI, TOMOKO AKAMA, TSUGUKI TOUMA,
          TAKESHI YOSHIKAWA, YASUHIRO IKABATA, JUNJI SEINO,
          YUYA NAKAJIMA, HIROMI NAKAI
     NANJING UNIVERSITY: SHUHUA LI
     UNIVERSITY OF NEBRASKA:
          PEIFENG SU, DEJUN SI, NANDUN THELLAMUREGE, YALI WANG, HUI LI
     UNIVERSITY OF ZURICH: ROBERTO PEVERATI, KIM BALDRIDGE
     N. COPERNICUS UNIVERSITY AND JACKSON STATE UNIVERSITY:
          MARIA BARYSZ
     UNIVERSITY OF COPENHAGEN: Jimmy Kromann, CASPER STEINMANN
     TOKYO INSTITUTE OF TECHNOLOGY: HIROYA NAKATA
     NAGOYA UNIVERSITY: YOSHIO NISHIMOTO, STEPHAN IRLE
     MOSCOW STATE UNIVERSITY: VLADIMIR MIRONOV

 EXECUTION OF GAMESS BEGUN Thu Apr 18 14:30:57 2019

            ECHO OF THE FIRST FEW INPUT CARDS -
 INPUT CARD> $contrl  scftyp=rhf  runtyp=trudge  coord=hint  $end                           
 INPUT CARD> $basis  gbasis=n31  ngauss=6  ndfunc=1  $end                                   
 INPUT CARD> $trudge  optmiz=geometry  npar=5  iex(1)=11,21,22,31,32  $end                  
 INPUT CARD> $trurst  tolf=0.0001  tolr=0.001  fnoise=0.00001  $end                         
 INPUT CARD> $nbo  print=0  nbosum  $end                                                    
 INPUT CARD> $choose                                                                        
 INPUT CARD>   lone 3 3 4 3 end                                                             
 INPUT CARD>   bond d 1 2 s 1 3 s 1 5 s 2 4 s 2 6 end                                       
 INPUT CARD> $end                                                                           
 INPUT CARD> $del  delete 2 orbitals 19 21  $end                                            
 INPUT CARD> $data                                                                          
 INPUT CARD>Geometry optimization of cis-1,2-difluoroethene (no CF*s)                       
 INPUT CARD>Cnv 2                                                                           
 INPUT CARD>                                                                                
 INPUT CARD>C    6.    LC    0.67     0.00    0.00 + O I                                    
 INPUT CARD>F    9.    TCT   1.33   120.00    0.00 + 1 O K                                  
 INPUT CARD>H    1.    TCT   1.08   120.00  180.00 + 1 O K                                  
 INPUT CARD> $end                                                                           
    1000000 WORDS OF MEMORY AVAILABLE

     BASIS OPTIONS
     -------------
     GBASIS=N31          IGAUSS=       6      POLAR=POPN31  
     NDFUNC=       1     NFFUNC=       0     DIFFSP=       F
     NPFUNC=       0      DIFFS=       F     BASNAM=        


     RUN TITLE
     ---------
 Geometry optimization of cis-1,2-difluoroethene (no CF*s)                       

 THE POINT GROUP OF THE MOLECULE IS CNV     
 THE ORDER OF THE PRINCIPAL AXIS IS     2

 ATOM      ATOMIC                      COORDINATES (BOHR)
           CHARGE         X                   Y                   Z
 C           6.0     1.2661164118       -0.0000000000        0.0000000000
 C           6.0    -1.2661164118        0.0000000000        0.0000000000
 F           9.0     2.5227841936       -0.0000000000        2.1766124464
 F           9.0    -2.5227841936        0.0000000000        2.1766124464
 H           1.0     2.2865684451       -0.0000000000       -1.7674747685
 H           1.0    -2.2865684451       -0.0000000000       -1.7674747685

          INTERNUCLEAR DISTANCES (ANGS.)
          ------------------------------

                1 C          2 C          3 F          4 F          5 H     

   1 C       0.0000000    1.3400000 *  1.3300000 *  2.3122932 *  1.0800000 *
   2 C       1.3400000 *  0.0000000    2.3122932 *  1.3300000 *  2.0998095 *
   3 F       1.3300000 *  2.3122932 *  0.0000000    2.6700000 *  2.0908611 *
   4 F       2.3122932 *  1.3300000 *  2.6700000 *  0.0000000    3.2913675  
   5 H       1.0800000 *  2.0998095 *  2.0908611 *  3.2913675    0.0000000  
   6 H       2.0998095 *  1.0800000 *  3.2913675    2.0908611 *  2.4200000 *

                6 H     

   1 C       2.0998095 *
   2 C       1.0800000 *
   3 F       3.2913675  
   4 F       2.0908611 *
   5 H       2.4200000 *
   6 H       0.0000000  

  * ... LESS THAN  3.000


     ATOMIC BASIS SET
     ----------------
 THE CONTRACTED PRIMITIVE FUNCTIONS HAVE BEEN UNNORMALIZED
 THE CONTRACTED BASIS FUNCTIONS ARE NOW NORMALIZED TO UNITY

  SHELL TYPE  PRIMITIVE        EXPONENT          CONTRACTION COEFFICIENT(S)

 C         

      5   S       1          3047.5248800    0.001834737132
      5   S       2           457.3695180    0.014037322813
      5   S       3           103.9486850    0.068842622264
      5   S       4            29.2101553    0.232184443216
      5   S       5             9.2866630    0.467941348435
      5   S       6             3.1639270    0.362311985337

      6   L       7             7.8682723   -0.119332419775    0.068999066591
      6   L       8             1.8812885   -0.160854151696    0.316423960957
      6   L       9             0.5442493    1.143456437840    0.744308290898

      7   L      10             0.1687145    1.000000000000    1.000000000000

      8   D      11             0.8000000    1.000000000000

 F         

     13   S      12          7001.7130900    0.001819616901
     13   S      13          1051.3660900    0.013916079607
     13   S      14           239.2856900    0.068405324535
     13   S      15            67.3974453    0.233185760119
     13   S      16            21.5199573    0.471267439240
     13   S      17             7.4031013    0.356618546182

     14   L      18            20.8479528   -0.108506975109    0.071628724237
     14   L      19             4.8083083   -0.146451658147    0.345912102697
     14   L      20             1.3440699    1.128688581135    0.722469956367

     15   L      21             0.3581514    1.000000000000    1.000000000000

     16   D      22             0.8000000    1.000000000000

 H         

     19   S      23            18.7311370    0.033494604338
     19   S      24             2.8253944    0.234726953484
     19   S      25             0.6401217    0.813757326146

     20   S      26             0.1612778    1.000000000000

 TOTAL NUMBER OF BASIS SET SHELLS             =   20
 NUMBER OF CARTESIAN GAUSSIAN BASIS FUNCTIONS =   64
 NUMBER OF ELECTRONS                          =   32
 CHARGE OF MOLECULE                           =    0
 SPIN MULTIPLICITY                            =    1
 NUMBER OF OCCUPIED ORBITALS (ALPHA)          =   16
 NUMBER OF OCCUPIED ORBITALS (BETA )          =   16
 TOTAL NUMBER OF ATOMS                        =    6
 THE NUCLEAR REPULSION ENERGY IS      114.5295779870

     $CONTRL OPTIONS
     ---------------
 SCFTYP=RHF          RUNTYP=TRUDGE       EXETYP=RUN     
 MPLEVL=       0     CITYP =NONE         CCTYP =NONE         VBTYP =NONE    
 DFTTYP=NONE         TDDFT =NONE    
 MULT  =       1     ICHARG=       0     NZVAR =       0     COORD =HINT    
 PP    =NONE         RELWFN=NONE         LOCAL =NONE         NUMGRD=       F
 ISPHER=      -1     NOSYM =       0     MAXIT =      30     UNITS =ANGS    
 PLTORB=       F     MOLPLT=       F     AIMPAC=       F     FRIEND=        
 NPRINT=       7     IREST =       0     GEOM  =INPUT   
 NORMF =       0     NORMP =       0     ITOL  =      20     ICUT  =       9
 INTTYP=BEST         GRDTYP=BEST         QMTTOL= 1.0E-06

     $SYSTEM OPTIONS
     ---------------
  REPLICATED MEMORY=     1000000 WORDS (ON EVERY NODE).
 DISTRIBUTED MEMDDI=           0 MILLION WORDS IN AGGREGATE,
 MEMDDI DISTRIBUTED OVER   1 PROCESSORS IS           0 WORDS/PROCESSOR.
 TOTAL MEMORY REQUESTED ON EACH PROCESSOR=     1000000 WORDS.
 TIMLIM=      525600.00 MINUTES, OR     365.0 DAYS.
 PARALL= F  BALTYP=  DLB     KDIAG=    0  COREFL= F
 MXSEQ2=     300 MXSEQ3=     150  mem10=         0

          ----------------
          PROPERTIES INPUT
          ----------------

     MOMENTS            FIELD           POTENTIAL          DENSITY
 IEMOM =       1   IEFLD =       0   IEPOT =       0   IEDEN =       0
 WHERE =COMASS     WHERE =NUCLEI     WHERE =NUCLEI     WHERE =NUCLEI  
 OUTPUT=BOTH       OUTPUT=BOTH       OUTPUT=BOTH       OUTPUT=BOTH    
 IEMINT=       0   IEFINT=       0                     IEDINT=       0
                                                       MORB  =       0
          EXTRAPOLATION IN EFFECT
          SOSCF IN EFFECT
 ORBITAL PRINTING OPTION: NPREO=     1    64     2     1

     -------------------------------
     INTEGRAL TRANSFORMATION OPTIONS
     -------------------------------
     NWORD  =            0
     CUTOFF = 1.0E-09     MPTRAN =       0
     DIRTRF =       F     AOINTS =DUP     

          ----------------------
          INTEGRAL INPUT OPTIONS
          ----------------------
 NOPK  =       1 NORDER=       0 SCHWRZ=       T

     ------------------------------------------
     THE POINT GROUP IS CNV, NAXIS= 2, ORDER= 4
     ------------------------------------------

     DIMENSIONS OF THE SYMMETRY SUBSPACES ARE
 A1  =   24     A2  =    8     B1  =   24     B2  =    8

 ..... DONE SETTING UP THE RUN .....
 STEP CPU TIME =     0.00 TOTAL CPU TIME =          0.0 (      0.0 MIN)
 TOTAL WALL CLOCK TIME=          0.0 SECONDS, CPU UTILIZATION IS   100.00%

     --------------------------------
     NON-GRADIENT ENERGY MINIMIZATION
     --------------------------------
 $TRURST KSTART=-1  JSTART= 0  TOLF=  0.000100 TOLR=  0.001000
         FNOISE=  0.000010  FNOT=   0.000000000
 $END
 --------------------------------------------------------------
 INTERNAL COORDINATES (ANGSTROMS/DEGREE)
  I   BOND     ALPHA      BETA    SIGN ICONX   IATCON    INATOM
  1 0.6700000   0.00000   0.00000  1.0     1200120022003      2
  2 1.3300000 120.00000   0.00000  1.0     6   220012004      4
  3 1.0800000 120.00000 180.00000  1.0     6   220012004      6
 --------------------------------------------------------------
 ----- TRUDGE RESTART DATA AT NSTEP   0 --------
 $TRUDGE OPTMIZ=GEOMETRY  NPAR= 5
         IEX(1)=   11,   21,   22,   31,   32,
         P(1)=      0.670000,      1.330000,    120.000000,      1.080000,
                  120.000000,
 $END

          ********************
          1 ELECTRON INTEGRALS
          ********************
 ...... END OF ONE-ELECTRON INTEGRALS ......
 STEP CPU TIME =     0.00 TOTAL CPU TIME =          0.0 (      0.0 MIN)
 TOTAL WALL CLOCK TIME=          0.0 SECONDS, CPU UTILIZATION IS   100.00%

          -------------
          GUESS OPTIONS
          -------------
          GUESS =HUCKEL            NORB  =       0          NORDER=       0
          MIX   =       F          PRTMO =       F          PUNMO =       F
          TOLZ  = 1.0E-08          TOLE  = 1.0E-05
          SYMDEN=       F          PURIFY=       F

 INITIAL GUESS ORBITALS GENERATED BY HUCKEL   ROUTINE.
 HUCKEL GUESS REQUIRES     36490 WORDS.

 SYMMETRIES FOR INITIAL GUESS ORBITALS FOLLOW.   BOTH SET(S).
    16 ORBITALS ARE OCCUPIED (    4 CORE ORBITALS).
     5=A1       6=B1       7=A1       8=B1       9=A1      10=B2      11=A1  
    12=B1      13=A2      14=B1      15=A1      16=B2      17=A2      18=A1  
    19=B1      20=A1      21=B1      22=A1      23=A1      24=A1      25=A1  
    26=A1  
 ...... END OF INITIAL ORBITAL SELECTION ......
 STEP CPU TIME =     0.00 TOTAL CPU TIME =          0.0 (      0.0 MIN)
 TOTAL WALL CLOCK TIME=          0.0 SECONDS, CPU UTILIZATION IS     0.00%

                    ----------------------
                    AO INTEGRAL TECHNOLOGY
                    ----------------------
     S,P,L SHELL ROTATED AXIS INTEGRALS, REPROGRAMMED BY
        KAZUYA ISHIMURA (IMS) AND JOSE SIERRA (SYNSTAR).
     S,P,D,L SHELL ROTATED AXIS INTEGRALS PROGRAMMED BY
        KAZUYA ISHIMURA (INSTITUTE FOR MOLECULAR SCIENCE).
     S,P,D,F,G SHELL TO TOTAL QUARTET ANGULAR MOMENTUM SUM 5,
        ERIC PROGRAM BY GRAHAM FLETCHER (ELORET AND NASA ADVANCED
        SUPERCOMPUTING DIVISION, AMES RESEARCH CENTER).
     S,P,D,F,G,L SHELL GENERAL RYS QUADRATURE PROGRAMMED BY
        MICHEL DUPUIS (PACIFIC NORTHWEST NATIONAL LABORATORY).

          --------------------
          2 ELECTRON INTEGRALS
          --------------------

 THE -PK- OPTION IS OFF, THE INTEGRALS ARE NOT IN SUPERMATRIX FORM.
 STORING   15000 INTEGRALS/RECORD ON DISK, USING 12 BYTES/INTEGRAL.
 TWO ELECTRON INTEGRAL EVALUATION REQUIRES   90606 WORDS OF MEMORY.
 SCHWARZ INEQUALITY OVERHEAD:      2077 INTEGRALS, T=        0.00
 II,JST,KST,LST =  1  1  1  1 NREC =         1 INTLOC =    1
 II,JST,KST,LST =  2  1  1  1 NREC =         1 INTLOC =    1
 II,JST,KST,LST =  3  1  1  1 NREC =         1 INTLOC =    1
 II,JST,KST,LST =  4  1  1  1 NREC =         1 INTLOC =    1
 II,JST,KST,LST =  5  1  1  1 NREC =         1 INTLOC =    1
 II,JST,KST,LST =  6  1  1  1 NREC =         1 INTLOC =    4
 II,JST,KST,LST =  7  1  1  1 NREC =         1 INTLOC =  305
 II,JST,KST,LST =  8  1  1  1 NREC =         1 INTLOC = 2380
 II,JST,KST,LST =  9  1  1  1 NREC =         2 INTLOC =  185
 II,JST,KST,LST = 10  1  1  1 NREC =         2 INTLOC =  185
 II,JST,KST,LST = 11  1  1  1 NREC =         2 INTLOC =  185
 II,JST,KST,LST = 12  1  1  1 NREC =         2 INTLOC =  185
 II,JST,KST,LST = 13  1  1  1 NREC =         2 INTLOC =  185
 II,JST,KST,LST = 14  1  1  1 NREC =         2 INTLOC = 8080
 II,JST,KST,LST = 15  1  1  1 NREC =         5 INTLOC =10997
 II,JST,KST,LST = 16  1  1  1 NREC =        11 INTLOC =12363
 II,JST,KST,LST = 17  1  1  1 NREC =        27 INTLOC = 5739
 II,JST,KST,LST = 18  1  1  1 NREC =        27 INTLOC = 5739
 II,JST,KST,LST = 19  1  1  1 NREC =        27 INTLOC = 5739
 II,JST,KST,LST = 20  1  1  1 NREC =        31 INTLOC = 4873
 SCHWARZ INEQUALITY TEST SKIPPED         935 INTEGRAL BLOCKS.
 TOTAL NUMBER OF NONZERO TWO-ELECTRON INTEGRALS =              525277
         36 INTEGRAL RECORDS WERE STORED ON DISK FILE  8.
  ...... END OF TWO-ELECTRON INTEGRALS .....
 STEP CPU TIME =     0.07 TOTAL CPU TIME =          0.1 (      0.0 MIN)
 TOTAL WALL CLOCK TIME=          0.1 SECONDS, CPU UTILIZATION IS   100.00%

          --------------------------
                 RHF SCF CALCULATION
          --------------------------

     NUCLEAR ENERGY =       114.5295779870
     MAXIT =   30     NPUNCH=    2
     EXTRAP=T  DAMP=F  SHIFT=F  RSTRCT=F  DIIS=F  DEM=F  SOSCF=T
     DENSITY MATRIX CONV=  1.00E-05
     SOSCF WILL OPTIMIZE     768 ORBITAL ROTATIONS, SOGTOL=   0.250
     MEMORY REQUIRED FOR RHF ITERS=     62640 WORDS.

 ITER EX DEM     TOTAL ENERGY        E CHANGE  DENSITY CHANGE     ORB. GRAD
   1  0  0     -275.0287593931  -275.0287593931   0.219504815   0.000000000
          ---------------START SECOND ORDER SCF---------------
   2  1  0     -275.6878054934    -0.6590461003   0.063993392   0.062220492
   3  2  0     -275.7144803949    -0.0266749015   0.019886580   0.012270706
   4  3  0     -275.7170136824    -0.0025332875   0.006821832   0.006173431
   5  4  0     -275.7172501414    -0.0002364590   0.000945628   0.001207257
   6  5  0     -275.7172632667    -0.0000131252   0.000398143   0.000157927
   7  6  0     -275.7172639098    -0.0000006432   0.000116152   0.000065132
   8  7  0     -275.7172639479    -0.0000000380   0.000011275   0.000005954
   9  8  0     -275.7172639488    -0.0000000009   0.000004627   0.000001938
  10  9  0     -275.7172639489    -0.0000000001   0.000000667   0.000000264

          -----------------
          DENSITY CONVERGED
          -----------------
     TIME TO FORM FOCK OPERATORS=       0.1 SECONDS (       0.0 SEC/ITER)
     TIME TO SOLVE SCF EQUATIONS=       0.0 SECONDS (       0.0 SEC/ITER)

 FINAL RHF ENERGY IS     -275.7172639489 AFTER  10 ITERATIONS

          ------------
          EIGENVECTORS
          ------------

                      1          2          3          4          5
                  -26.3172   -26.3172   -11.3320   -11.3304    -1.6378
                     B1         A1         A1         B1         A1  
    1  C  1  S   -0.000012  -0.000003   0.703857   0.704320  -0.046967
    2  C  1  S    0.000178   0.000324   0.018673   0.019077   0.081898
    3  C  1  X    0.000169   0.000227   0.000798   0.000633   0.020272
    4  C  1  Y    0.000000  -0.000000   0.000000   0.000000   0.000000
    5  C  1  Z    0.000366   0.000366   0.001076   0.001181   0.061223
    6  C  1  S    0.000444  -0.000114  -0.003541  -0.008808   0.029728
    7  C  1  X   -0.000428  -0.000051  -0.000235   0.002070   0.001683
    8  C  1  Y    0.000000  -0.000000   0.000000   0.000000   0.000000
    9  C  1  Z    0.000120  -0.000083   0.000718   0.002191  -0.001198
   10  C  1 XX    0.000108  -0.000021  -0.001059  -0.000782   0.001701
   11  C  1 YY   -0.000062  -0.000057  -0.001756  -0.001625  -0.007889
   12  C  1 ZZ    0.000130   0.000093  -0.001043  -0.000442   0.010853
   13  C  1 XY    0.000000  -0.000000   0.000000   0.000000   0.000000
   14  C  1 XZ    0.000067   0.000123   0.000345   0.000368   0.010402
   15  C  1 YZ    0.000000  -0.000000   0.000000   0.000000   0.000000
   16  C  2  S    0.000012  -0.000003   0.703857  -0.704320  -0.046967
   17  C  2  S   -0.000178   0.000324   0.018673  -0.019077   0.081898
   18  C  2  X    0.000169  -0.000227  -0.000798   0.000633  -0.020272
   19  C  2  Y    0.000000  -0.000000   0.000000   0.000000   0.000000
   20  C  2  Z   -0.000366   0.000366   0.001076  -0.001181   0.061223
   21  C  2  S   -0.000444  -0.000114  -0.003541   0.008808   0.029728
   22  C  2  X   -0.000428   0.000051   0.000235   0.002070  -0.001683
   23  C  2  Y    0.000000  -0.000000   0.000000   0.000000   0.000000
   24  C  2  Z   -0.000120  -0.000083   0.000718  -0.002191  -0.001198
   25  C  2 XX   -0.000108  -0.000021  -0.001059   0.000782   0.001701
   26  C  2 YY    0.000062  -0.000057  -0.001756   0.001625  -0.007889
   27  C  2 ZZ   -0.000130   0.000093  -0.001043   0.000442   0.010853
   28  C  2 XY    0.000000  -0.000000   0.000000   0.000000   0.000000
   29  C  2 XZ    0.000067  -0.000123  -0.000345   0.000368  -0.010402
   30  C  2 YZ    0.000000  -0.000000   0.000000   0.000000   0.000000
   31  F  3  S    0.703158   0.703169  -0.000021   0.000048  -0.154017
   32  F  3  S    0.012549   0.012599   0.000594   0.001096   0.361517
   33  F  3  X   -0.000332  -0.000349  -0.000121  -0.000166  -0.027680
   34  F  3  Y    0.000000  -0.000000   0.000000   0.000000   0.000000
   35  F  3  Z   -0.000609  -0.000607  -0.000248  -0.000258  -0.043795
   36  F  3  S    0.005790   0.005690  -0.001551  -0.003157   0.294422
   37  F  3  X    0.000252   0.000256   0.000691   0.000887  -0.016441
   38  F  3  Y    0.000000  -0.000000   0.000000   0.000000   0.000000
   39  F  3  Z    0.000400   0.000395   0.001257   0.001552  -0.024543
   40  F  3 XX   -0.003314  -0.003280   0.000232   0.000395   0.019539
   41  F  3 YY   -0.003254  -0.003179   0.000474   0.000844   0.015268
   42  F  3 ZZ   -0.003502  -0.003452  -0.000344  -0.000119   0.024878
   43  F  3 XY    0.000000  -0.000000   0.000000   0.000000   0.000000
   44  F  3 XZ   -0.000190  -0.000183  -0.000441  -0.000592   0.006262
   45  F  3 YZ    0.000000  -0.000000   0.000000   0.000000   0.000000
   46  F  4  S   -0.703158   0.703169  -0.000021  -0.000048  -0.154017
   47  F  4  S   -0.012549   0.012599   0.000594  -0.001096   0.361517
   48  F  4  X   -0.000332   0.000349   0.000121  -0.000166   0.027680
   49  F  4  Y    0.000000  -0.000000   0.000000   0.000000   0.000000
   50  F  4  Z    0.000609  -0.000607  -0.000248   0.000258  -0.043795
   51  F  4  S   -0.005790   0.005690  -0.001551   0.003157   0.294422
   52  F  4  X    0.000252  -0.000256  -0.000691   0.000887   0.016441
   53  F  4  Y    0.000000  -0.000000   0.000000   0.000000   0.000000
   54  F  4  Z   -0.000400   0.000395   0.001257  -0.001552  -0.024543
   55  F  4 XX    0.003314  -0.003280   0.000232  -0.000395   0.019539
   56  F  4 YY    0.003254  -0.003179   0.000474  -0.000844   0.015268
   57  F  4 ZZ    0.003502  -0.003452  -0.000344   0.000119   0.024878
   58  F  4 XY    0.000000  -0.000000   0.000000   0.000000   0.000000
   59  F  4 XZ   -0.000190   0.000183   0.000441  -0.000592  -0.006262
   60  F  4 YZ    0.000000  -0.000000   0.000000   0.000000   0.000000
   61  H  5  S   -0.000005   0.000008  -0.000144   0.000035   0.009143
   62  H  5  S    0.000109  -0.000035   0.001454   0.001938  -0.003383
   63  H  6  S    0.000005   0.000008  -0.000144  -0.000035   0.009143
   64  H  6  S   -0.000109  -0.000035   0.001454  -0.001938  -0.003383

                      6          7          8          9         10
                   -1.6224    -1.0550    -0.8486    -0.7709    -0.7435
                     B1         A1         B1         A1         A1  
    1  C  1  S   -0.036802  -0.146860   0.100617  -0.011057  -0.007455
    2  C  1  S    0.062569   0.295157  -0.204538   0.020791   0.012639
    3  C  1  X    0.045229  -0.141548  -0.143833   0.146910  -0.217819
    4  C  1  Y    0.000000  -0.000000  -0.000000  -0.000000   0.000000
    5  C  1  Z    0.056509  -0.036093   0.006791  -0.203635  -0.152422
    6  C  1  S    0.007259   0.197804  -0.158351   0.056824   0.028304
    7  C  1  X    0.012836  -0.018870  -0.040265   0.058789  -0.056358
    8  C  1  Y    0.000000  -0.000000  -0.000000  -0.000000   0.000000
    9  C  1  Z   -0.015367  -0.029270   0.081461  -0.064952  -0.023740
   10  C  1 XX   -0.004775   0.015464   0.002738   0.003776   0.003958
   11  C  1 YY   -0.007161  -0.010475   0.010525  -0.000166   0.003319
   12  C  1 ZZ    0.012419  -0.002235  -0.017668   0.001234  -0.015517
   13  C  1 XY    0.000000  -0.000000  -0.000000  -0.000000   0.000000
   14  C  1 XZ    0.013825  -0.007341  -0.001738  -0.003555  -0.016298
   15  C  1 YZ    0.000000  -0.000000  -0.000000  -0.000000   0.000000
   16  C  2  S    0.036802  -0.146860  -0.100617  -0.011057  -0.007455
   17  C  2  S   -0.062569   0.295157   0.204538   0.020791   0.012639
   18  C  2  X    0.045229   0.141548  -0.143833  -0.146910   0.217819
   19  C  2  Y    0.000000  -0.000000  -0.000000  -0.000000   0.000000
   20  C  2  Z   -0.056509  -0.036093  -0.006791  -0.203635  -0.152422
   21  C  2  S   -0.007259   0.197804   0.158351   0.056824   0.028304
   22  C  2  X    0.012836   0.018870  -0.040265  -0.058789   0.056358
   23  C  2  Y    0.000000  -0.000000  -0.000000  -0.000000   0.000000
   24  C  2  Z    0.015367  -0.029270  -0.081461  -0.064952  -0.023740
   25  C  2 XX    0.004775   0.015464  -0.002738   0.003776   0.003958
   26  C  2 YY    0.007161  -0.010475  -0.010525  -0.000166   0.003319
   27  C  2 ZZ   -0.012419  -0.002235   0.017668   0.001234  -0.015517
   28  C  2 XY    0.000000  -0.000000  -0.000000  -0.000000   0.000000
   29  C  2 XZ    0.013825   0.007341  -0.001738   0.003555   0.016298
   30  C  2 YZ    0.000000  -0.000000  -0.000000  -0.000000   0.000000
   31  F  3  S   -0.157898   0.047354  -0.043980  -0.011516  -0.030318
   32  F  3  S    0.368600  -0.108201   0.107448   0.027556   0.057115
   33  F  3  X   -0.022381  -0.081065   0.082698   0.309943   0.046425
   34  F  3  Y    0.000000  -0.000000  -0.000000  -0.000000   0.000000
   35  F  3  Z   -0.042938  -0.089747   0.279587  -0.051564   0.372521
   36  F  3  S    0.312589  -0.140997   0.128157   0.039752   0.136227
   37  F  3  X   -0.014321  -0.049831   0.060649   0.207702   0.027467
   38  F  3  Y    0.000000  -0.000000  -0.000000  -0.000000   0.000000
   39  F  3  Z   -0.026027  -0.054217   0.179967  -0.032702   0.246428
   40  F  3 XX    0.017693   0.000704   0.006287  -0.012372  -0.000156
   41  F  3 YY    0.015337  -0.005281   0.009035   0.003270   0.000077
   42  F  3 ZZ    0.024231   0.004766  -0.013218   0.007030  -0.024892
   43  F  3 XY    0.000000  -0.000000  -0.000000  -0.000000   0.000000
   44  F  3 XZ    0.006160   0.008860  -0.010885  -0.012219  -0.009152
   45  F  3 YZ    0.000000  -0.000000  -0.000000  -0.000000   0.000000
   46  F  4  S    0.157898   0.047354   0.043980  -0.011516  -0.030318
   47  F  4  S   -0.368600  -0.108201  -0.107448   0.027556   0.057115
   48  F  4  X   -0.022381   0.081065   0.082698  -0.309943  -0.046425
   49  F  4  Y    0.000000  -0.000000  -0.000000  -0.000000   0.000000
   50  F  4  Z    0.042938  -0.089747  -0.279587  -0.051564   0.372521
   51  F  4  S   -0.312589  -0.140997  -0.128157   0.039752   0.136227
   52  F  4  X   -0.014321   0.049831   0.060649  -0.207702  -0.027467
   53  F  4  Y    0.000000  -0.000000  -0.000000  -0.000000   0.000000
   54  F  4  Z    0.026027  -0.054217  -0.179967  -0.032702   0.246428
   55  F  4 XX   -0.017693   0.000704  -0.006287  -0.012372  -0.000156
   56  F  4 YY   -0.015337  -0.005281  -0.009035   0.003270   0.000077
   57  F  4 ZZ   -0.024231   0.004766   0.013218   0.007030  -0.024892
   58  F  4 XY    0.000000  -0.000000  -0.000000  -0.000000   0.000000
   59  F  4 XZ    0.006160  -0.008860  -0.010885   0.012219   0.009152
   60  F  4 YZ    0.000000  -0.000000  -0.000000  -0.000000   0.000000
   61  H  5  S    0.007687   0.085736  -0.119778   0.132703   0.017863
   62  H  5  S   -0.008326   0.007090  -0.026704   0.071079   0.014570
   63  H  6  S   -0.007687   0.085736   0.119778   0.132703   0.017863
   64  H  6  S    0.008326   0.007090   0.026704   0.071079   0.014570

                     11         12         13         14         15
                   -0.7052    -0.6898    -0.6776    -0.6154    -0.5633
                     B2         B1         A2         B1         A1  
    1  C  1  S    0.000000  -0.009773   0.000000  -0.042363  -0.018755
    2  C  1  S    0.000000   0.021171   0.000000   0.085222   0.048454
    3  C  1  X    0.000000   0.040718   0.000000   0.030560  -0.291601
    4  C  1  Y    0.145908  -0.000000   0.074540   0.000000   0.000000
    5  C  1  Z    0.000000  -0.191115   0.000000  -0.178982   0.123835
    6  C  1  S    0.000000   0.015033   0.000000   0.195773   0.048693
    7  C  1  X    0.000000   0.061838   0.000000  -0.045554  -0.064394
    8  C  1  Y    0.078619  -0.000000   0.056850   0.000000   0.000000
    9  C  1  Z    0.000000  -0.042302   0.000000  -0.086018   0.029830
   10  C  1 XX    0.000000   0.013062   0.000000  -0.009333   0.018946
   11  C  1 YY    0.000000   0.001107   0.000000  -0.001394   0.002529
   12  C  1 ZZ    0.000000  -0.008832   0.000000   0.013042  -0.031101
   13  C  1 XY   -0.000765  -0.000000   0.010323   0.000000   0.000000
   14  C  1 XZ    0.000000  -0.019011   0.000000  -0.032277   0.009973
   15  C  1 YZ    0.012701  -0.000000   0.013208   0.000000   0.000000
   16  C  2  S    0.000000   0.009773   0.000000   0.042363  -0.018755
   17  C  2  S    0.000000  -0.021171   0.000000  -0.085222   0.048454
   18  C  2  X    0.000000   0.040718   0.000000   0.030560   0.291601
   19  C  2  Y    0.145908  -0.000000  -0.074540   0.000000   0.000000
   20  C  2  Z    0.000000   0.191115   0.000000   0.178982   0.123835
   21  C  2  S    0.000000  -0.015033   0.000000  -0.195773   0.048693
   22  C  2  X    0.000000   0.061838   0.000000  -0.045554   0.064394
   23  C  2  Y    0.078619  -0.000000  -0.056850   0.000000   0.000000
   24  C  2  Z    0.000000   0.042302   0.000000   0.086018   0.029830
   25  C  2 XX    0.000000  -0.013062   0.000000   0.009333   0.018946
   26  C  2 YY    0.000000  -0.001107   0.000000   0.001394   0.002529
   27  C  2 ZZ    0.000000   0.008832   0.000000  -0.013042  -0.031101
   28  C  2 XY    0.000765  -0.000000   0.010323   0.000000   0.000000
   29  C  2 XZ    0.000000  -0.019011   0.000000  -0.032277  -0.009973
   30  C  2 YZ    0.012701  -0.000000  -0.013208   0.000000   0.000000
   31  F  3  S    0.000000  -0.010606   0.000000  -0.004687  -0.000045
   32  F  3  S    0.000000   0.021599   0.000000   0.005982   0.005103
   33  F  3  X    0.000000   0.396155   0.000000  -0.213001   0.306661
   34  F  3  Y    0.422499  -0.000000   0.457427   0.000000   0.000000
   35  F  3  Z    0.000000   0.033322   0.000000   0.306304  -0.121973
   36  F  3  S    0.000000   0.040610   0.000000   0.035492  -0.010517
   37  F  3  X    0.000000   0.270232   0.000000  -0.153705   0.238959
   38  F  3  Y    0.292853  -0.000000   0.320574   0.000000   0.000000
   39  F  3  Z    0.000000   0.027668   0.000000   0.216917  -0.098475
   40  F  3 XX    0.000000  -0.010400   0.000000   0.004477  -0.003755
   41  F  3 YY    0.000000   0.001608   0.000000   0.000883   0.003070
   42  F  3 ZZ    0.000000  -0.000445   0.000000  -0.014357   0.007877
   43  F  3 XY   -0.009805  -0.000000  -0.008514   0.000000   0.000000
   44  F  3 XZ    0.000000  -0.016348   0.000000   0.001072  -0.003142
   45  F  3 YZ   -0.016773  -0.000000  -0.017133   0.000000   0.000000
   46  F  4  S    0.000000   0.010606   0.000000   0.004687  -0.000045
   47  F  4  S    0.000000  -0.021599   0.000000  -0.005982   0.005103
   48  F  4  X    0.000000   0.396155   0.000000  -0.213001  -0.306661
   49  F  4  Y    0.422499  -0.000000  -0.457427   0.000000   0.000000
   50  F  4  Z    0.000000  -0.033322   0.000000  -0.306304  -0.121973
   51  F  4  S    0.000000  -0.040610   0.000000  -0.035492  -0.010517
   52  F  4  X    0.000000   0.270232   0.000000  -0.153705  -0.238959
   53  F  4  Y    0.292853  -0.000000  -0.320574   0.000000   0.000000
   54  F  4  Z    0.000000  -0.027668   0.000000  -0.216917  -0.098475
   55  F  4 XX    0.000000   0.010400   0.000000  -0.004477  -0.003755
   56  F  4 YY    0.000000  -0.001608   0.000000  -0.000883   0.003070
   57  F  4 ZZ    0.000000   0.000445   0.000000   0.014357   0.007877
   58  F  4 XY    0.009805  -0.000000  -0.008514   0.000000   0.000000
   59  F  4 XZ    0.000000  -0.016348   0.000000   0.001072   0.003142
   60  F  4 YZ   -0.016773  -0.000000   0.017133   0.000000   0.000000
   61  H  5  S    0.000000   0.113196   0.000000   0.164536  -0.159478
   62  H  5  S    0.000000   0.074885   0.000000   0.118018  -0.161736
   63  H  6  S    0.000000  -0.113196   0.000000  -0.164536  -0.159478
   64  H  6  S    0.000000  -0.074885   0.000000  -0.118018  -0.161736

                     16         17         18         19         20
                   -0.3732     0.1827     0.2590     0.2800     0.2910
                     B2         A2         A1         A1         B1  
    1  C  1  S   -0.000000  -0.000000   0.053296  -0.050488   0.098560
    2  C  1  S   -0.000000  -0.000000  -0.050906   0.031538  -0.135356
    3  C  1  X   -0.000000  -0.000000  -0.152214   0.136344  -0.087234
    4  C  1  Y    0.382274   0.398550   0.000000   0.000000   0.000000
    5  C  1  Z   -0.000000  -0.000000   0.219728   0.172316   0.093726
    6  C  1  S   -0.000000  -0.000000  -1.029296   0.811895  -1.468756
    7  C  1  X   -0.000000  -0.000000  -0.375029   0.531550  -0.259830
    8  C  1  Y    0.284084   0.713435   0.000000   0.000000   0.000000
    9  C  1  Z   -0.000000  -0.000000   0.556974   0.490777   0.964801
   10  C  1 XX   -0.000000  -0.000000   0.002950   0.006186   0.008679
   11  C  1 YY   -0.000000  -0.000000   0.003535   0.012515  -0.001163
   12  C  1 ZZ   -0.000000  -0.000000   0.002043  -0.012926   0.011167
   13  C  1 XY   -0.032884   0.024578   0.000000   0.000000   0.000000
   14  C  1 XZ   -0.000000  -0.000000  -0.013345  -0.027579   0.011095
   15  C  1 YZ   -0.011042  -0.010107   0.000000   0.000000   0.000000
   16  C  2  S   -0.000000  -0.000000   0.053296  -0.050488  -0.098560
   17  C  2  S   -0.000000  -0.000000  -0.050906   0.031538   0.135356
   18  C  2  X   -0.000000  -0.000000   0.152214  -0.136344  -0.087234
   19  C  2  Y    0.382274  -0.398550   0.000000   0.000000   0.000000
   20  C  2  Z   -0.000000  -0.000000   0.219728   0.172316  -0.093726
   21  C  2  S   -0.000000  -0.000000  -1.029296   0.811895   1.468756
   22  C  2  X   -0.000000  -0.000000   0.375029  -0.531550  -0.259830
   23  C  2  Y    0.284084  -0.713435   0.000000   0.000000   0.000000
   24  C  2  Z   -0.000000  -0.000000   0.556974   0.490777  -0.964801
   25  C  2 XX   -0.000000  -0.000000   0.002950   0.006186  -0.008679
   26  C  2 YY   -0.000000  -0.000000   0.003535   0.012515   0.001163
   27  C  2 ZZ   -0.000000  -0.000000   0.002043  -0.012926  -0.011167
   28  C  2 XY    0.032884   0.024578   0.000000   0.000000   0.000000
   29  C  2 XZ   -0.000000  -0.000000   0.013345   0.027579   0.011095
   30  C  2 YZ   -0.011042   0.010107   0.000000   0.000000   0.000000
   31  F  3  S   -0.000000  -0.000000   0.005435   0.066844  -0.006530
   32  F  3  S   -0.000000  -0.000000  -0.017820  -0.052112   0.083753
   33  F  3  X   -0.000000  -0.000000   0.064386   0.103952  -0.041604
   34  F  3  Y   -0.214868  -0.149409   0.000000   0.000000   0.000000
   35  F  3  Z   -0.000000  -0.000000  -0.026102   0.182533  -0.095144
   36  F  3  S   -0.000000  -0.000000  -0.026474  -0.786224  -0.145992
   37  F  3  X   -0.000000  -0.000000   0.116502   0.186561   0.014067
   38  F  3  Y   -0.202067  -0.192363   0.000000   0.000000   0.000000
   39  F  3  Z   -0.000000  -0.000000  -0.060059   0.369577  -0.105019
   40  F  3 XX   -0.000000  -0.000000   0.001848   0.038160   0.027632
   41  F  3 YY   -0.000000  -0.000000  -0.003442   0.039881   0.025164
   42  F  3 ZZ   -0.000000  -0.000000  -0.004215   0.024307   0.025214
   43  F  3 XY   -0.000936  -0.001980   0.000000   0.000000   0.000000
   44  F  3 XZ   -0.000000  -0.000000  -0.000027  -0.008993  -0.005958
   45  F  3 YZ    0.000298  -0.010162   0.000000   0.000000   0.000000
   46  F  4  S   -0.000000  -0.000000   0.005435   0.066844   0.006530
   47  F  4  S   -0.000000  -0.000000  -0.017820  -0.052112  -0.083753
   48  F  4  X   -0.000000  -0.000000  -0.064386  -0.103952  -0.041604
   49  F  4  Y   -0.214868   0.149409   0.000000   0.000000   0.000000
   50  F  4  Z   -0.000000  -0.000000  -0.026102   0.182533   0.095144
   51  F  4  S   -0.000000  -0.000000  -0.026474  -0.786224   0.145992
   52  F  4  X   -0.000000  -0.000000  -0.116502  -0.186561   0.014067
   53  F  4  Y   -0.202067   0.192363   0.000000   0.000000   0.000000
   54  F  4  Z   -0.000000  -0.000000  -0.060059   0.369577   0.105019
   55  F  4 XX   -0.000000  -0.000000   0.001848   0.038160  -0.027632
   56  F  4 YY   -0.000000  -0.000000  -0.003442   0.039881  -0.025164
   57  F  4 ZZ   -0.000000  -0.000000  -0.004215   0.024307  -0.025214
   58  F  4 XY    0.000936  -0.001980   0.000000   0.000000   0.000000
   59  F  4 XZ   -0.000000  -0.000000   0.000027   0.008993  -0.005958
   60  F  4 YZ    0.000298   0.010162   0.000000   0.000000   0.000000
   61  H  5  S   -0.000000  -0.000000   0.010463   0.014777   0.033396
   62  H  5  S   -0.000000  -0.000000   1.497857  -0.131533   1.774567
   63  H  6  S   -0.000000  -0.000000   0.010463   0.014777  -0.033396
   64  H  6  S   -0.000000  -0.000000   1.497857  -0.131533  -1.774567

                     21         22         23         24         25
                    0.4476     0.5970     0.7040     0.7253     0.7554
                     B1         B1         A1         B2         A1  
    1  C  1  S   -0.008344  -0.127223   0.046217   0.000000   0.004430
    2  C  1  S    0.025216   0.087978   0.324959   0.000000  -0.777713
    3  C  1  X    0.090322  -0.159711  -0.532227   0.000000  -0.119009
    4  C  1  Y   -0.000000  -0.000000  -0.000000   0.720291  -0.000000
    5  C  1  Z    0.181182   0.239277  -0.219961   0.000000  -0.325713
    6  C  1  S   -1.448770   3.436083  -0.139000   0.000000   1.064615
    7  C  1  X    1.764091  -2.586253   0.898814   0.000000   0.257458
    8  C  1  Y   -0.000000  -0.000000  -0.000000  -0.680239  -0.000000
    9  C  1  Z    1.169581   1.412368   0.209997   0.000000   0.260207
   10  C  1 XX   -0.002414  -0.023265   0.097884   0.000000  -0.073685
   11  C  1 YY    0.017671   0.025764  -0.034841   0.000000  -0.015925
   12  C  1 ZZ   -0.004948   0.004373   0.065220   0.000000  -0.029125
   13  C  1 XY   -0.000000  -0.000000  -0.000000  -0.055797  -0.000000
   14  C  1 XZ    0.017538   0.018720   0.029855   0.000000   0.123889
   15  C  1 YZ   -0.000000  -0.000000  -0.000000   0.018297  -0.000000
   16  C  2  S    0.008344   0.127223   0.046217   0.000000   0.004430
   17  C  2  S   -0.025216  -0.087978   0.324959   0.000000  -0.777713
   18  C  2  X    0.090322  -0.159711   0.532227   0.000000   0.119009
   19  C  2  Y   -0.000000  -0.000000  -0.000000   0.720291  -0.000000
   20  C  2  Z   -0.181182  -0.239277  -0.219961   0.000000  -0.325713
   21  C  2  S    1.448770  -3.436083  -0.139000   0.000000   1.064615
   22  C  2  X    1.764091  -2.586253  -0.898814   0.000000  -0.257458
   23  C  2  Y   -0.000000  -0.000000  -0.000000  -0.680239  -0.000000
   24  C  2  Z   -1.169581  -1.412368   0.209997   0.000000   0.260207
   25  C  2 XX    0.002414   0.023265   0.097884   0.000000  -0.073685
   26  C  2 YY   -0.017671  -0.025764  -0.034841   0.000000  -0.015925
   27  C  2 ZZ    0.004948  -0.004373   0.065220   0.000000  -0.029125
   28  C  2 XY   -0.000000  -0.000000  -0.000000   0.055797  -0.000000
   29  C  2 XZ    0.017538   0.018720  -0.029855   0.000000  -0.123889
   30  C  2 YZ   -0.000000  -0.000000  -0.000000   0.018297  -0.000000
   31  F  3  S    0.066379   0.040375  -0.002816   0.000000   0.003582
   32  F  3  S   -0.028811  -0.054105   0.148412   0.000000  -0.027381
   33  F  3  X   -0.022526   0.149602  -0.146835   0.000000  -0.096551
   34  F  3  Y   -0.000000  -0.000000  -0.000000   0.043458  -0.000000
   35  F  3  Z    0.146071   0.070995  -0.069143   0.000000  -0.161642
   36  F  3  S   -0.996485  -0.566160  -0.361217   0.000000  -0.269227
   37  F  3  X    0.070405   0.412392  -0.105156   0.000000   0.048849
   38  F  3  Y   -0.000000  -0.000000  -0.000000   0.080545  -0.000000
   39  F  3  Z    0.401564   0.167583   0.043048   0.000000   0.082933
   40  F  3 XX    0.039152  -0.007747   0.059851   0.000000  -0.025077
   41  F  3 YY    0.045356   0.018189   0.056048   0.000000   0.025010
   42  F  3 ZZ    0.025567   0.007532   0.010293   0.000000  -0.084862
   43  F  3 XY   -0.000000  -0.000000  -0.000000  -0.015817  -0.000000
   44  F  3 XZ   -0.010108   0.011991  -0.036269   0.000000  -0.071783
   45  F  3 YZ   -0.000000  -0.000000  -0.000000  -0.033174  -0.000000
   46  F  4  S   -0.066379  -0.040375  -0.002816   0.000000   0.003582
   47  F  4  S    0.028811   0.054105   0.148412   0.000000  -0.027381
   48  F  4  X   -0.022526   0.149602   0.146835   0.000000   0.096551
   49  F  4  Y   -0.000000  -0.000000  -0.000000   0.043458  -0.000000
   50  F  4  Z   -0.146071  -0.070995  -0.069143   0.000000  -0.161642
   51  F  4  S    0.996485   0.566160  -0.361217   0.000000  -0.269227
   52  F  4  X    0.070405   0.412392   0.105156   0.000000  -0.048849
   53  F  4  Y   -0.000000  -0.000000  -0.000000   0.080545  -0.000000
   54  F  4  Z   -0.401564  -0.167583   0.043048   0.000000   0.082933
   55  F  4 XX   -0.039152   0.007747   0.059851   0.000000  -0.025077
   56  F  4 YY   -0.045356  -0.018189   0.056048   0.000000   0.025010
   57  F  4 ZZ   -0.025567  -0.007532   0.010293   0.000000  -0.084862
   58  F  4 XY   -0.000000  -0.000000  -0.000000   0.015817  -0.000000
   59  F  4 XZ   -0.010108   0.011991   0.036269   0.000000   0.071783
   60  F  4 YZ   -0.000000  -0.000000  -0.000000  -0.033174  -0.000000
   61  H  5  S   -0.137073  -0.110987   0.116192   0.000000  -0.304076
   62  H  5  S    0.268622   1.246728  -0.032959   0.000000  -0.002937
   63  H  6  S    0.137073   0.110987   0.116192   0.000000  -0.304076
   64  H  6  S   -0.268622  -1.246728  -0.032959   0.000000  -0.002937

                     26         27         28         29         30
                    0.8299     0.8481     0.8715     1.0327     1.0843
                     A2         A1         B1         B1         A1  
    1  C  1  S   -0.000000   0.024919  -0.023595   0.013640   0.009124
    2  C  1  S   -0.000000   0.001935  -0.416583  -0.106993  -0.774748
    3  C  1  X   -0.000000   0.129373  -0.535783   0.626262  -0.297845
    4  C  1  Y   -0.778676   0.000000   0.000000   0.000000  -0.000000
    5  C  1  Z   -0.000000  -0.413351  -0.484839  -0.534082   0.414823
    6  C  1  S   -0.000000  -0.653772   1.427846   1.457260   1.576046
    7  C  1  X   -0.000000  -0.637451  -0.069808  -2.160515   0.537005
    8  C  1  Y    1.215307   0.000000   0.000000   0.000000  -0.000000
    9  C  1  Z   -0.000000   0.777859   1.063520   2.615004  -0.747233
   10  C  1 XX   -0.000000  -0.006357  -0.114707   0.174168  -0.087516
   11  C  1 YY   -0.000000  -0.039362  -0.008077  -0.034514  -0.072546
   12  C  1 ZZ   -0.000000   0.097438   0.078952   0.001891   0.022927
   13  C  1 XY   -0.027752   0.000000   0.000000   0.000000  -0.000000
   14  C  1 XZ   -0.000000  -0.027774   0.046875   0.034933  -0.130416
   15  C  1 YZ   -0.019605   0.000000   0.000000   0.000000  -0.000000
   16  C  2  S   -0.000000   0.024919   0.023595  -0.013640   0.009124
   17  C  2  S   -0.000000   0.001935   0.416583   0.106993  -0.774748
   18  C  2  X   -0.000000  -0.129373  -0.535783   0.626262   0.297845
   19  C  2  Y    0.778676   0.000000   0.000000   0.000000  -0.000000
   20  C  2  Z   -0.000000  -0.413351   0.484839   0.534082   0.414823
   21  C  2  S   -0.000000  -0.653772  -1.427846  -1.457260   1.576046
   22  C  2  X   -0.000000   0.637451  -0.069808  -2.160515  -0.537005
   23  C  2  Y   -1.215307   0.000000   0.000000   0.000000  -0.000000
   24  C  2  Z   -0.000000   0.777859  -1.063520  -2.615004  -0.747233
   25  C  2 XX   -0.000000  -0.006357   0.114707  -0.174168  -0.087516
   26  C  2 YY   -0.000000  -0.039362   0.008077   0.034514  -0.072546
   27  C  2 ZZ   -0.000000   0.097438  -0.078952  -0.001891   0.022927
   28  C  2 XY   -0.027752   0.000000   0.000000   0.000000  -0.000000
   29  C  2 XZ   -0.000000   0.027774   0.046875   0.034933   0.130416
   30  C  2 YZ    0.019605   0.000000   0.000000   0.000000  -0.000000
   31  F  3  S   -0.000000  -0.007850   0.002463   0.014286   0.000956
   32  F  3  S   -0.000000  -0.068639   0.074924  -0.024134   0.142840
   33  F  3  X   -0.000000   0.149024  -0.119422  -0.071218  -0.002127
   34  F  3  Y   -0.034394   0.000000   0.000000   0.000000  -0.000000
   35  F  3  Z   -0.000000  -0.186100  -0.203616  -0.102120  -0.007334
   36  F  3  S   -0.000000   0.097080  -0.597286  -0.584076  -0.266876
   37  F  3  X   -0.000000   0.071980   0.113143   0.318946  -0.095023
   38  F  3  Y   -0.122007   0.000000   0.000000   0.000000  -0.000000
   39  F  3  Z   -0.000000  -0.057089   0.080326   0.133015   0.004228
   40  F  3 XX   -0.000000  -0.018826   0.010263  -0.110182   0.112360
   41  F  3 YY   -0.000000  -0.034225   0.076163   0.026796   0.070211
   42  F  3 ZZ   -0.000000  -0.092894  -0.088040   0.006807   0.008539
   43  F  3 XY    0.041953   0.000000   0.000000   0.000000  -0.000000
   44  F  3 XZ   -0.000000  -0.033399  -0.069522  -0.067033   0.034571
   45  F  3 YZ    0.039283   0.000000   0.000000   0.000000  -0.000000
   46  F  4  S   -0.000000  -0.007850  -0.002463  -0.014286   0.000956
   47  F  4  S   -0.000000  -0.068639  -0.074924   0.024134   0.142840
   48  F  4  X   -0.000000  -0.149024  -0.119422  -0.071218   0.002127
   49  F  4  Y    0.034394   0.000000   0.000000   0.000000  -0.000000
   50  F  4  Z   -0.000000  -0.186100   0.203616   0.102120  -0.007334
   51  F  4  S   -0.000000   0.097080   0.597286   0.584076  -0.266876
   52  F  4  X   -0.000000  -0.071980   0.113143   0.318946   0.095023
   53  F  4  Y    0.122007   0.000000   0.000000   0.000000  -0.000000
   54  F  4  Z   -0.000000  -0.057089  -0.080326  -0.133015   0.004228
   55  F  4 XX   -0.000000  -0.018826  -0.010263   0.110182   0.112360
   56  F  4 YY   -0.000000  -0.034225  -0.076163  -0.026796   0.070211
   57  F  4 ZZ   -0.000000  -0.092894   0.088040  -0.006807   0.008539
   58  F  4 XY    0.041953   0.000000   0.000000   0.000000  -0.000000
   59  F  4 XZ   -0.000000   0.033399  -0.069522  -0.067033  -0.034571
   60  F  4 YZ   -0.039283   0.000000   0.000000   0.000000  -0.000000
   61  H  5  S   -0.000000   0.478755  -0.041542  -0.051979   0.516982
   62  H  5  S   -0.000000   0.379156   0.123978   1.814201  -1.440836
   63  H  6  S   -0.000000   0.478755   0.041542   0.051979   0.516982
   64  H  6  S   -0.000000   0.379156  -0.123978  -1.814201  -1.440836

                     31         32         33         34         35
                    1.2067     1.2560     1.3548     1.4845     1.5429
                     B1         B1         A1         B2         B1  
    1  C  1  S    0.022033  -0.045182   0.014958   0.000000  -0.002654
    2  C  1  S   -0.697470  -1.260699   0.119958   0.000000  -0.028615
    3  C  1  X    0.090718   0.199556   0.021191   0.000000  -0.036035
    4  C  1  Y    0.000000  -0.000000   0.000000   0.038708   0.000000
    5  C  1  Z    0.351881   0.157783   0.259882   0.000000  -0.181659
    6  C  1  S    2.464412   5.009404  -0.079732   0.000000  -0.278415
    7  C  1  X   -0.883370  -1.715368  -0.014821   0.000000  -0.131754
    8  C  1  Y    0.000000  -0.000000   0.000000  -0.145202   0.000000
    9  C  1  Z    0.409723  -1.057148  -0.342117   0.000000   1.889577
   10  C  1 XX    0.036798   0.025662   0.016374   0.000000  -0.012541
   11  C  1 YY   -0.120277  -0.012356  -0.095725   0.000000   0.019814
   12  C  1 ZZ    0.076991  -0.213009   0.173615   0.000000  -0.073466
   13  C  1 XY    0.000000  -0.000000   0.000000   0.151453   0.000000
   14  C  1 XZ   -0.000405   0.034982   0.110440   0.000000  -0.153538
   15  C  1 YZ    0.000000  -0.000000   0.000000   0.215646   0.000000
   16  C  2  S   -0.022033   0.045182   0.014958   0.000000   0.002654
   17  C  2  S    0.697470   1.260699   0.119958   0.000000   0.028615
   18  C  2  X    0.090718   0.199556  -0.021191   0.000000  -0.036035
   19  C  2  Y    0.000000  -0.000000   0.000000   0.038708   0.000000
   20  C  2  Z   -0.351881  -0.157783   0.259882   0.000000   0.181659
   21  C  2  S   -2.464412  -5.009404  -0.079732   0.000000   0.278415
   22  C  2  X   -0.883370  -1.715368   0.014821   0.000000  -0.131754
   23  C  2  Y    0.000000  -0.000000   0.000000  -0.145202   0.000000
   24  C  2  Z   -0.409723   1.057148  -0.342117   0.000000  -1.889577
   25  C  2 XX   -0.036798  -0.025662   0.016374   0.000000   0.012541
   26  C  2 YY    0.120277   0.012356  -0.095725   0.000000  -0.019814
   27  C  2 ZZ   -0.076991   0.213009   0.173615   0.000000   0.073466
   28  C  2 XY    0.000000  -0.000000   0.000000  -0.151453   0.000000
   29  C  2 XZ   -0.000405   0.034982  -0.110440   0.000000  -0.153538
   30  C  2 YZ    0.000000  -0.000000   0.000000   0.215646   0.000000
   31  F  3  S   -0.003579   0.009797  -0.056770   0.000000   0.053678
   32  F  3  S   -0.373482   0.264302  -0.948026   0.000000   0.572684
   33  F  3  X   -0.019920   0.050792  -0.228080   0.000000   0.314116
   34  F  3  Y    0.000000  -0.000000   0.000000  -0.592850   0.000000
   35  F  3  Z   -0.184125   0.074510  -0.331995   0.000000   0.354775
   36  F  3  S    0.318651  -0.480185   1.981976   0.000000  -1.741462
   37  F  3  X    0.232071  -0.021104   0.271205   0.000000  -0.261060
   38  F  3  Y    0.000000  -0.000000   0.000000   0.630324   0.000000
   39  F  3  Z    0.323292  -0.066301   0.464946   0.000000  -0.426521
   40  F  3 XX   -0.177689   0.046991  -0.458251   0.000000   0.278790
   41  F  3 YY   -0.123754   0.173959  -0.477050   0.000000   0.401811
   42  F  3 ZZ   -0.224603   0.153047  -0.458492   0.000000   0.206172
   43  F  3 XY    0.000000  -0.000000   0.000000  -0.046893   0.000000
   44  F  3 XZ   -0.000462  -0.035010   0.014789   0.000000  -0.017680
   45  F  3 YZ    0.000000  -0.000000   0.000000  -0.084023   0.000000
   46  F  4  S    0.003579  -0.009797  -0.056770   0.000000  -0.053678
   47  F  4  S    0.373482  -0.264302  -0.948026   0.000000  -0.572684
   48  F  4  X   -0.019920   0.050792   0.228080   0.000000   0.314116
   49  F  4  Y    0.000000  -0.000000   0.000000  -0.592850   0.000000
   50  F  4  Z    0.184125  -0.074510  -0.331995   0.000000  -0.354775
   51  F  4  S   -0.318651   0.480185   1.981976   0.000000   1.741462
   52  F  4  X    0.232071  -0.021104  -0.271205   0.000000  -0.261060
   53  F  4  Y    0.000000  -0.000000   0.000000   0.630324   0.000000
   54  F  4  Z   -0.323292   0.066301   0.464946   0.000000   0.426521
   55  F  4 XX    0.177689  -0.046991  -0.458251   0.000000  -0.278790
   56  F  4 YY    0.123754  -0.173959  -0.477050   0.000000  -0.401811
   57  F  4 ZZ    0.224603  -0.153047  -0.458492   0.000000  -0.206172
   58  F  4 XY    0.000000  -0.000000   0.000000   0.046893   0.000000
   59  F  4 XZ   -0.000462  -0.035010  -0.014789   0.000000  -0.017680
   60  F  4 YZ    0.000000  -0.000000   0.000000  -0.084023   0.000000
   61  H  5  S    0.694056  -0.360727   0.086645   0.000000   0.461934
   62  H  5  S   -0.556235  -0.630586  -0.256697   0.000000   0.646402
   63  H  6  S   -0.694056   0.360727   0.086645   0.000000  -0.461934
   64  H  6  S    0.556235   0.630586  -0.256697   0.000000  -0.646402

                     36         37         38         39         40
                    1.5840     1.6283     1.6444     1.7172     1.7217
                     A2         B2         A1         B1         B2  
    1  C  1  S    0.000000   0.000000   0.002486  -0.011216   0.000000
    2  C  1  S    0.000000   0.000000   0.057863  -0.206782   0.000000
    3  C  1  X    0.000000   0.000000   0.101692   0.100177   0.000000
    4  C  1  Y    0.017176   0.110337   0.000000   0.000000  -0.107166
    5  C  1  Z    0.000000   0.000000  -0.166691   0.007298   0.000000
    6  C  1  S    0.000000   0.000000  -0.577942   1.601468   0.000000
    7  C  1  X    0.000000   0.000000  -0.575726  -1.376275   0.000000
    8  C  1  Y   -0.377103   0.046512   0.000000   0.000000   0.120671
    9  C  1  Z    0.000000   0.000000   0.512079   0.379488   0.000000
   10  C  1 XX    0.000000   0.000000  -0.104217  -0.040175   0.000000
   11  C  1 YY    0.000000   0.000000   0.064090  -0.004303   0.000000
   12  C  1 ZZ    0.000000   0.000000   0.085032   0.023094   0.000000
   13  C  1 XY   -0.028495   0.537162   0.000000   0.000000  -0.065058
   14  C  1 XZ    0.000000   0.000000  -0.048310  -0.036263   0.000000
   15  C  1 YZ    0.109739  -0.107170   0.000000   0.000000   0.486463
   16  C  2  S    0.000000   0.000000   0.002486   0.011216   0.000000
   17  C  2  S    0.000000   0.000000   0.057863   0.206782   0.000000
   18  C  2  X    0.000000   0.000000  -0.101692   0.100177   0.000000
   19  C  2  Y   -0.017176   0.110337   0.000000   0.000000  -0.107166
   20  C  2  Z    0.000000   0.000000  -0.166691  -0.007298   0.000000
   21  C  2  S    0.000000   0.000000  -0.577942  -1.601468   0.000000
   22  C  2  X    0.000000   0.000000   0.575726  -1.376275   0.000000
   23  C  2  Y    0.377103   0.046512   0.000000   0.000000   0.120671
   24  C  2  Z    0.000000   0.000000   0.512079  -0.379488   0.000000
   25  C  2 XX    0.000000   0.000000  -0.104217   0.040175   0.000000
   26  C  2 YY    0.000000   0.000000   0.064090   0.004303   0.000000
   27  C  2 ZZ    0.000000   0.000000   0.085032  -0.023094   0.000000
   28  C  2 XY   -0.028495  -0.537162   0.000000   0.000000   0.065058
   29  C  2 XZ    0.000000   0.000000   0.048310  -0.036263   0.000000
   30  C  2 YZ   -0.109739  -0.107170   0.000000   0.000000   0.486463
   31  F  3  S    0.000000   0.000000   0.004590  -0.004882   0.000000
   32  F  3  S    0.000000   0.000000   0.001941  -0.038209   0.000000
   33  F  3  X    0.000000   0.000000  -0.504452  -0.515691   0.000000
   34  F  3  Y   -0.659059   0.172397   0.000000   0.000000   0.241757
   35  F  3  Z    0.000000   0.000000   0.296262   0.371089   0.000000
   36  F  3  S    0.000000   0.000000  -0.047791   0.064492   0.000000
   37  F  3  X    0.000000   0.000000   0.766263   0.766574   0.000000
   38  F  3  Y    0.813245  -0.275046   0.000000   0.000000  -0.407953
   39  F  3  Z    0.000000   0.000000  -0.460831  -0.517945   0.000000
   40  F  3 XX    0.000000   0.000000   0.130105   0.085230   0.000000
   41  F  3 YY    0.000000   0.000000   0.056709   0.009035   0.000000
   42  F  3 ZZ    0.000000   0.000000  -0.153434  -0.158368   0.000000
   43  F  3 XY   -0.014611   0.050083   0.000000   0.000000  -0.250750
   44  F  3 XZ    0.000000   0.000000   0.090529   0.080454   0.000000
   45  F  3 YZ    0.024805  -0.215005   0.000000   0.000000  -0.200003
   46  F  4  S    0.000000   0.000000   0.004590   0.004882   0.000000
   47  F  4  S    0.000000   0.000000   0.001941   0.038209   0.000000
   48  F  4  X    0.000000   0.000000   0.504452  -0.515691   0.000000
   49  F  4  Y    0.659059   0.172397   0.000000   0.000000   0.241757
   50  F  4  Z    0.000000   0.000000   0.296262  -0.371089   0.000000
   51  F  4  S    0.000000   0.000000  -0.047791  -0.064492   0.000000
   52  F  4  X    0.000000   0.000000  -0.766263   0.766574   0.000000
   53  F  4  Y   -0.813245  -0.275046   0.000000   0.000000  -0.407953
   54  F  4  Z    0.000000   0.000000  -0.460831   0.517945   0.000000
   55  F  4 XX    0.000000   0.000000   0.130105  -0.085230   0.000000
   56  F  4 YY    0.000000   0.000000   0.056709  -0.009035   0.000000
   57  F  4 ZZ    0.000000   0.000000  -0.153434   0.158368   0.000000
   58  F  4 XY   -0.014611  -0.050083   0.000000   0.000000   0.250750
   59  F  4 XZ    0.000000   0.000000  -0.090529   0.080454   0.000000
   60  F  4 YZ   -0.024805  -0.215005   0.000000   0.000000  -0.200003
   61  H  5  S    0.000000   0.000000   0.059281   0.070041   0.000000
   62  H  5  S    0.000000   0.000000   0.542569   0.330420   0.000000
   63  H  6  S    0.000000   0.000000   0.059281  -0.070041   0.000000
   64  H  6  S    0.000000   0.000000   0.542569  -0.330420   0.000000

                     41         42         43         44         45
                    1.8512     1.8896     2.0386     2.0867     2.1062
                     A2         A1         A1         A2         B1  
    1  C  1  S   -0.000000  -0.023631   0.009622   0.000000  -0.009830
    2  C  1  S   -0.000000  -0.073685  -0.042982   0.000000  -0.126333
    3  C  1  X   -0.000000   0.021081   0.008092   0.000000   0.021647
    4  C  1  Y   -0.154743   0.000000  -0.000000  -0.023403   0.000000
    5  C  1  Z   -0.000000  -0.046660   0.074937   0.000000   0.009773
    6  C  1  S   -0.000000  -0.272536  -0.698707   0.000000   0.499699
    7  C  1  X   -0.000000  -0.181510  -0.574725   0.000000  -0.731788
    8  C  1  Y    0.117501   0.000000  -0.000000  -0.199746   0.000000
    9  C  1  Z   -0.000000  -0.609010  -0.055767   0.000000  -1.014833
   10  C  1 XX   -0.000000   0.164169   0.140855   0.000000   0.108243
   11  C  1 YY   -0.000000  -0.374752   0.171091   0.000000  -0.051035
   12  C  1 ZZ   -0.000000   0.085251  -0.353812   0.000000  -0.011447
   13  C  1 XY    0.048155   0.000000  -0.000000   0.235560   0.000000
   14  C  1 XZ   -0.000000  -0.193966   0.101789   0.000000  -0.099741
   15  C  1 YZ    0.446194   0.000000  -0.000000  -0.023730   0.000000
   16  C  2  S   -0.000000  -0.023631   0.009622   0.000000   0.009830
   17  C  2  S   -0.000000  -0.073685  -0.042982   0.000000   0.126333
   18  C  2  X   -0.000000  -0.021081  -0.008092   0.000000   0.021647
   19  C  2  Y    0.154743   0.000000  -0.000000   0.023403   0.000000
   20  C  2  Z   -0.000000  -0.046660   0.074937   0.000000  -0.009773
   21  C  2  S   -0.000000  -0.272536  -0.698707   0.000000  -0.499699
   22  C  2  X   -0.000000   0.181510   0.574725   0.000000  -0.731788
   23  C  2  Y   -0.117501   0.000000  -0.000000   0.199746   0.000000
   24  C  2  Z   -0.000000  -0.609010  -0.055767   0.000000   1.014833
   25  C  2 XX   -0.000000   0.164169   0.140855   0.000000  -0.108243
   26  C  2 YY   -0.000000  -0.374752   0.171091   0.000000   0.051035
   27  C  2 ZZ   -0.000000   0.085251  -0.353812   0.000000   0.011447
   28  C  2 XY    0.048155   0.000000  -0.000000   0.235560   0.000000
   29  C  2 XZ   -0.000000   0.193966  -0.101789   0.000000  -0.099741
   30  C  2 YZ   -0.446194   0.000000  -0.000000   0.023730   0.000000
   31  F  3  S   -0.000000  -0.067082  -0.034284   0.000000  -0.041162
   32  F  3  S   -0.000000  -0.895742  -0.583602   0.000000  -0.839248
   33  F  3  X   -0.000000   0.121450  -0.070926   0.000000   0.096137
   34  F  3  Y    0.055739   0.000000  -0.000000  -0.045541   0.000000
   35  F  3  Z   -0.000000   0.287054   0.172670   0.000000   0.125423
   36  F  3  S   -0.000000   2.185725   1.390750   0.000000   2.015077
   37  F  3  X   -0.000000  -0.335081   0.002398   0.000000  -0.222627
   38  F  3  Y   -0.183377   0.000000  -0.000000   0.075056   0.000000
   39  F  3  Z   -0.000000  -0.581581  -0.453429   0.000000  -0.409406
   40  F  3 XX   -0.000000  -0.169211  -0.609260   0.000000   0.133424
   41  F  3 YY   -0.000000  -0.530636   0.148086   0.000000  -0.577023
   42  F  3 ZZ   -0.000000  -0.410333  -0.131369   0.000000  -0.355385
   43  F  3 XY   -0.282929   0.000000  -0.000000   0.522239   0.000000
   44  F  3 XZ   -0.000000  -0.259102  -0.164823   0.000000  -0.387990
   45  F  3 YZ   -0.348564   0.000000  -0.000000  -0.412955   0.000000
   46  F  4  S   -0.000000  -0.067082  -0.034284   0.000000   0.041162
   47  F  4  S   -0.000000  -0.895742  -0.583602   0.000000   0.839248
   48  F  4  X   -0.000000  -0.121450   0.070926   0.000000   0.096137
   49  F  4  Y   -0.055739   0.000000  -0.000000   0.045541   0.000000
   50  F  4  Z   -0.000000   0.287054   0.172670   0.000000  -0.125423
   51  F  4  S   -0.000000   2.185725   1.390750   0.000000  -2.015077
   52  F  4  X   -0.000000   0.335081  -0.002398   0.000000  -0.222627
   53  F  4  Y    0.183377   0.000000  -0.000000  -0.075056   0.000000
   54  F  4  Z   -0.000000  -0.581581  -0.453429   0.000000   0.409406
   55  F  4 XX   -0.000000  -0.169211  -0.609260   0.000000  -0.133424
   56  F  4 YY   -0.000000  -0.530636   0.148086   0.000000   0.577023
   57  F  4 ZZ   -0.000000  -0.410333  -0.131369   0.000000   0.355385
   58  F  4 XY   -0.282929   0.000000  -0.000000   0.522239   0.000000
   59  F  4 XZ   -0.000000   0.259102   0.164823   0.000000  -0.387990
   60  F  4 YZ    0.348564   0.000000  -0.000000   0.412955   0.000000
   61  H  5  S   -0.000000  -0.212677   0.441835   0.000000  -0.184852
   62  H  5  S   -0.000000  -0.239819   0.087731   0.000000  -0.156128
   63  H  6  S   -0.000000  -0.212677   0.441835   0.000000   0.184852
   64  H  6  S   -0.000000  -0.239819   0.087731   0.000000   0.156128

                     46         47         48         49         50
                    2.1088     2.1700     2.1877     2.2253     2.3900
                     A1         B2         B1         A1         A1  
    1  C  1  S    0.000280   0.000000  -0.005266   0.022785   0.033886
    2  C  1  S    0.271513   0.000000   0.276228   0.177887   0.320015
    3  C  1  X   -0.161344   0.000000  -0.388203  -0.006213  -0.224399
    4  C  1  Y   -0.000000  -0.065652  -0.000000   0.000000   0.000000
    5  C  1  Z   -0.007880   0.000000   0.098816  -0.097096   0.133140
    6  C  1  S   -0.170032   0.000000  -0.250672  -0.385545  -0.512580
    7  C  1  X    0.414017   0.000000  -0.444516  -0.025596   0.209853
    8  C  1  Y   -0.000000   0.028117  -0.000000   0.000000   0.000000
    9  C  1  Z   -0.420863   0.000000  -0.351006  -0.468676  -0.273133
   10  C  1 XX   -0.227864   0.000000   0.153009   0.014319  -0.337194
   11  C  1 YY   -0.017414   0.000000   0.056481   0.310304   0.558190
   12  C  1 ZZ    0.290032   0.000000  -0.209740  -0.210166  -0.037275
   13  C  1 XY   -0.000000  -0.176530  -0.000000   0.000000   0.000000
   14  C  1 XZ   -0.004897   0.000000   0.185036  -0.574950   0.213813
   15  C  1 YZ   -0.000000   0.124179  -0.000000   0.000000   0.000000
   16  C  2  S    0.000280   0.000000   0.005266   0.022785   0.033886
   17  C  2  S    0.271513   0.000000  -0.276228   0.177887   0.320015
   18  C  2  X    0.161344   0.000000  -0.388203   0.006213   0.224399
   19  C  2  Y   -0.000000  -0.065652  -0.000000   0.000000   0.000000
   20  C  2  Z   -0.007880   0.000000  -0.098816  -0.097096   0.133140
   21  C  2  S   -0.170032   0.000000   0.250672  -0.385545  -0.512580
   22  C  2  X   -0.414017   0.000000  -0.444516   0.025596  -0.209853
   23  C  2  Y   -0.000000   0.028117  -0.000000   0.000000   0.000000
   24  C  2  Z   -0.420863   0.000000   0.351006  -0.468676  -0.273133
   25  C  2 XX   -0.227864   0.000000  -0.153009   0.014319  -0.337194
   26  C  2 YY   -0.017414   0.000000  -0.056481   0.310304   0.558190
   27  C  2 ZZ    0.290032   0.000000   0.209740  -0.210166  -0.037275
   28  C  2 XY   -0.000000   0.176530  -0.000000   0.000000   0.000000
   29  C  2 XZ    0.004897   0.000000   0.185036   0.574950  -0.213813
   30  C  2 YZ   -0.000000   0.124179  -0.000000   0.000000   0.000000
   31  F  3  S   -0.023377   0.000000  -0.031236  -0.048744  -0.014421
   32  F  3  S   -0.495618   0.000000  -0.459333  -0.199307  -0.417331
   33  F  3  X    0.272752   0.000000  -0.117676  -0.090464   0.120926
   34  F  3  Y   -0.000000   0.001814  -0.000000   0.000000   0.000000
   35  F  3  Z    0.107143   0.000000   0.174208  -0.305943   0.059565
   36  F  3  S    1.055296   0.000000   1.191134   0.982454   0.911047
   37  F  3  X   -0.458055   0.000000   0.092595  -0.160198  -0.272498
   38  F  3  Y   -0.000000  -0.008029  -0.000000   0.000000   0.000000
   39  F  3  Z   -0.137655   0.000000  -0.370569   0.017103  -0.132117
   40  F  3 XX   -0.262214   0.000000  -0.616376  -0.078790   0.213476
   41  F  3 YY    0.260200   0.000000  -0.064884  -0.013500  -0.354460
   42  F  3 ZZ   -0.532956   0.000000   0.168120  -0.227344  -0.205516
   43  F  3 XY   -0.000000   0.575650  -0.000000   0.000000   0.000000
   44  F  3 XZ    0.225101   0.000000  -0.325387  -0.074149  -0.245919
   45  F  3 YZ   -0.000000  -0.368171  -0.000000   0.000000   0.000000
   46  F  4  S   -0.023377   0.000000   0.031236  -0.048744  -0.014421
   47  F  4  S   -0.495618   0.000000   0.459333  -0.199307  -0.417331
   48  F  4  X   -0.272752   0.000000  -0.117676   0.090464  -0.120926
   49  F  4  Y   -0.000000   0.001814  -0.000000   0.000000   0.000000
   50  F  4  Z    0.107143   0.000000  -0.174208  -0.305943   0.059565
   51  F  4  S    1.055296   0.000000  -1.191134   0.982454   0.911047
   52  F  4  X    0.458055   0.000000   0.092595   0.160198   0.272498
   53  F  4  Y   -0.000000  -0.008029  -0.000000   0.000000   0.000000
   54  F  4  Z   -0.137655   0.000000   0.370569   0.017103  -0.132117
   55  F  4 XX   -0.262214   0.000000   0.616376  -0.078790   0.213476
   56  F  4 YY    0.260200   0.000000   0.064884  -0.013500  -0.354460
   57  F  4 ZZ   -0.532956   0.000000  -0.168120  -0.227344  -0.205516
   58  F  4 XY   -0.000000  -0.575650  -0.000000   0.000000   0.000000
   59  F  4 XZ   -0.225101   0.000000  -0.325387   0.074149   0.245919
   60  F  4 YZ   -0.000000  -0.368171  -0.000000   0.000000   0.000000
   61  H  5  S   -0.231653   0.000000   0.315277  -0.306288   0.249408
   62  H  5  S   -0.179067   0.000000  -0.052977  -0.033852  -0.141759
   63  H  6  S   -0.231653   0.000000  -0.315277  -0.306288   0.249408
   64  H  6  S   -0.179067   0.000000   0.052977  -0.033852  -0.141759

                     51         52         53         54         55
                    2.4182     2.6000     2.6046     2.6752     2.7930
                     B1         B1         A2         B2         A1  
    1  C  1  S    0.019084  -0.061702   0.000000  -0.000000   0.016246
    2  C  1  S    0.350034  -0.368412   0.000000  -0.000000   0.007512
    3  C  1  X    0.097863  -0.124687   0.000000  -0.000000  -0.195030
    4  C  1  Y   -0.000000  -0.000000  -0.142779   0.148700  -0.000000
    5  C  1  Z    0.117612  -0.160231   0.000000  -0.000000  -0.124862
    6  C  1  S   -2.301979   2.119442   0.000000  -0.000000  -0.248136
    7  C  1  X    1.060229  -0.776227   0.000000  -0.000000  -0.082761
    8  C  1  Y   -0.000000  -0.000000  -0.348676   0.126282  -0.000000
    9  C  1  Z   -2.589416   0.486377   0.000000  -0.000000   0.280353
   10  C  1 XX   -0.070304   0.058974   0.000000  -0.000000  -0.418057
   11  C  1 YY   -0.066874  -0.707126   0.000000  -0.000000   0.062917
   12  C  1 ZZ    0.068346   0.477095   0.000000  -0.000000   0.550494
   13  C  1 XY   -0.000000  -0.000000   0.647674   0.255720  -0.000000
   14  C  1 XZ   -0.041069   0.207003   0.000000  -0.000000  -0.223437
   15  C  1 YZ   -0.000000  -0.000000  -0.425615   0.484926  -0.000000
   16  C  2  S   -0.019084   0.061702   0.000000  -0.000000   0.016246
   17  C  2  S   -0.350034   0.368412   0.000000  -0.000000   0.007512
   18  C  2  X    0.097863  -0.124687   0.000000  -0.000000   0.195030
   19  C  2  Y   -0.000000  -0.000000   0.142779   0.148700  -0.000000
   20  C  2  Z   -0.117612   0.160231   0.000000  -0.000000  -0.124862
   21  C  2  S    2.301979  -2.119442   0.000000  -0.000000  -0.248136
   22  C  2  X    1.060229  -0.776227   0.000000  -0.000000   0.082761
   23  C  2  Y   -0.000000  -0.000000   0.348676   0.126282  -0.000000
   24  C  2  Z    2.589416  -0.486377   0.000000  -0.000000   0.280353
   25  C  2 XX    0.070304  -0.058974   0.000000  -0.000000  -0.418057
   26  C  2 YY    0.066874   0.707126   0.000000  -0.000000   0.062917
   27  C  2 ZZ   -0.068346  -0.477095   0.000000  -0.000000   0.550494
   28  C  2 XY   -0.000000  -0.000000   0.647674  -0.255720  -0.000000
   29  C  2 XZ   -0.041069   0.207003   0.000000  -0.000000   0.223437
   30  C  2 YZ   -0.000000  -0.000000   0.425615   0.484926  -0.000000
   31  F  3  S   -0.052138   0.028798   0.000000  -0.000000   0.001794
   32  F  3  S   -1.016012  -0.054205   0.000000  -0.000000   0.027998
   33  F  3  X    0.123676   0.126064   0.000000  -0.000000  -0.068684
   34  F  3  Y   -0.000000  -0.000000  -0.091765   0.119957  -0.000000
   35  F  3  Z    0.056911   0.256300   0.000000  -0.000000   0.076960
   36  F  3  S    2.817269  -0.449446   0.000000  -0.000000  -0.106589
   37  F  3  X   -0.497598   0.063127   0.000000  -0.000000   0.257233
   38  F  3  Y   -0.000000  -0.000000   0.212085  -0.316072  -0.000000
   39  F  3  Z   -0.346243  -0.110202   0.000000  -0.000000  -0.172567
   40  F  3 XX   -0.462219  -0.092976   0.000000  -0.000000  -0.484456
   41  F  3 YY    0.276237  -0.087724   0.000000  -0.000000  -0.048952
   42  F  3 ZZ   -0.693887   0.233034   0.000000  -0.000000   0.536278
   43  F  3 XY   -0.000000  -0.000000  -0.352362   0.359356  -0.000000
   44  F  3 XZ    0.073114   0.080614   0.000000  -0.000000  -0.251364
   45  F  3 YZ   -0.000000  -0.000000  -0.120400   0.586101  -0.000000
   46  F  4  S    0.052138  -0.028798   0.000000  -0.000000   0.001794
   47  F  4  S    1.016012   0.054205   0.000000  -0.000000   0.027998
   48  F  4  X    0.123676   0.126064   0.000000  -0.000000   0.068684
   49  F  4  Y   -0.000000  -0.000000   0.091765   0.119957  -0.000000
   50  F  4  Z   -0.056911  -0.256300   0.000000  -0.000000   0.076960
   51  F  4  S   -2.817269   0.449446   0.000000  -0.000000  -0.106589
   52  F  4  X   -0.497598   0.063127   0.000000  -0.000000  -0.257233
   53  F  4  Y   -0.000000  -0.000000  -0.212085  -0.316072  -0.000000
   54  F  4  Z    0.346243   0.110202   0.000000  -0.000000  -0.172567
   55  F  4 XX    0.462219   0.092976   0.000000  -0.000000  -0.484456
   56  F  4 YY   -0.276237   0.087724   0.000000  -0.000000  -0.048952
   57  F  4 ZZ    0.693887  -0.233034   0.000000  -0.000000   0.536278
   58  F  4 XY   -0.000000  -0.000000  -0.352362  -0.359356  -0.000000
   59  F  4 XZ    0.073114   0.080614   0.000000  -0.000000   0.251364
   60  F  4 YZ   -0.000000  -0.000000   0.120400   0.586101  -0.000000
   61  H  5  S   -0.377692  -0.218008   0.000000  -0.000000  -0.179751
   62  H  5  S   -0.862187   0.150442   0.000000  -0.000000   0.316810
   63  H  6  S    0.377692   0.218008   0.000000  -0.000000  -0.179751
   64  H  6  S    0.862187  -0.150442   0.000000  -0.000000   0.316810

                     56         57         58         59         60
                    2.9667     3.0146     3.3220     3.3588     3.5552
                     A2         B1         B1         A1         B1  
    1  C  1  S    0.000000  -0.063264   0.024395   0.028109  -0.075709
    2  C  1  S    0.000000   0.201635  -0.176521  -0.667125   0.756548
    3  C  1  X    0.000000  -0.573065  -0.566250  -0.425200   0.099035
    4  C  1  Y    0.008444   0.000000   0.000000  -0.000000  -0.000000
    5  C  1  Z    0.000000   0.097728  -0.483165  -0.686960   0.400569
    6  C  1  S    0.000000   2.445659  -0.887692  -0.545150   1.076513
    7  C  1  X    0.000000  -1.328412   0.266391  -0.116403  -0.002931
    8  C  1  Y    0.119876   0.000000   0.000000  -0.000000  -0.000000
    9  C  1  Z    0.000000   0.380550  -0.717674  -0.425383   0.535987
   10  C  1 XX    0.000000   0.883435   0.652164   0.108363   0.216134
   11  C  1 YY    0.000000  -0.550018   0.179985   0.345336  -0.492684
   12  C  1 ZZ    0.000000  -0.292543  -0.686259  -0.390297  -0.172021
   13  C  1 XY    0.601623   0.000000   0.000000  -0.000000  -0.000000
   14  C  1 XZ    0.000000  -0.537161   0.213343  -0.383188   0.861938
   15  C  1 YZ    0.507735   0.000000   0.000000  -0.000000  -0.000000
   16  C  2  S    0.000000   0.063264  -0.024395   0.028109   0.075709
   17  C  2  S    0.000000  -0.201635   0.176521  -0.667125  -0.756548
   18  C  2  X    0.000000  -0.573065  -0.566250   0.425200   0.099035
   19  C  2  Y   -0.008444   0.000000   0.000000  -0.000000  -0.000000
   20  C  2  Z    0.000000  -0.097728   0.483165  -0.686960  -0.400569
   21  C  2  S    0.000000  -2.445659   0.887692  -0.545150  -1.076513
   22  C  2  X    0.000000  -1.328412   0.266391   0.116403  -0.002931
   23  C  2  Y   -0.119876   0.000000   0.000000  -0.000000  -0.000000
   24  C  2  Z    0.000000  -0.380550   0.717674  -0.425383  -0.535987
   25  C  2 XX    0.000000  -0.883435  -0.652164   0.108363  -0.216134
   26  C  2 YY    0.000000   0.550018  -0.179985   0.345336   0.492684
   27  C  2 ZZ    0.000000   0.292543   0.686259  -0.390297   0.172021
   28  C  2 XY    0.601623   0.000000   0.000000  -0.000000  -0.000000
   29  C  2 XZ    0.000000  -0.537161   0.213343   0.383188   0.861938
   30  C  2 YZ   -0.507735   0.000000   0.000000  -0.000000  -0.000000
   31  F  3  S    0.000000  -0.006412   0.016041  -0.008956  -0.028202
   32  F  3  S    0.000000   0.306800  -0.570971  -0.826951   0.496639
   33  F  3  X    0.000000  -0.131446   0.095450   0.079444   0.026701
   34  F  3  Y    0.085087   0.000000   0.000000  -0.000000  -0.000000
   35  F  3  Z    0.000000  -0.132059   0.055711   0.100093  -0.025795
   36  F  3  S    0.000000  -0.542582   1.165493   1.792330  -1.030065
   37  F  3  X    0.000000   0.270049  -0.575514  -0.636404   0.259035
   38  F  3  Y   -0.289497   0.000000   0.000000  -0.000000  -0.000000
   39  F  3  Z    0.000000   0.126205  -0.502617  -0.933933   0.776659
   40  F  3 XX    0.000000  -0.022551   0.277822  -0.049812   0.166392
   41  F  3 YY    0.000000   0.113408  -0.165135  -0.437477   0.100611
   42  F  3 ZZ    0.000000   0.029075   0.077677   0.480896  -0.762526
   43  F  3 XY    0.224386   0.000000   0.000000  -0.000000  -0.000000
   44  F  3 XZ    0.000000   0.003606   0.591189   0.682881  -0.311904
   45  F  3 YZ    0.530261   0.000000   0.000000  -0.000000  -0.000000
   46  F  4  S    0.000000   0.006412  -0.016041  -0.008956   0.028202
   47  F  4  S    0.000000  -0.306800   0.570971  -0.826951  -0.496639
   48  F  4  X    0.000000  -0.131446   0.095450  -0.079444   0.026701
   49  F  4  Y   -0.085087   0.000000   0.000000  -0.000000  -0.000000
   50  F  4  Z    0.000000   0.132059  -0.055711   0.100093   0.025795
   51  F  4  S    0.000000   0.542582  -1.165493   1.792330   1.030065
   52  F  4  X    0.000000   0.270049  -0.575514   0.636404   0.259035
   53  F  4  Y    0.289497   0.000000   0.000000  -0.000000  -0.000000
   54  F  4  Z    0.000000  -0.126205   0.502617  -0.933933  -0.776659
   55  F  4 XX    0.000000   0.022551  -0.277822  -0.049812  -0.166392
   56  F  4 YY    0.000000  -0.113408   0.165135  -0.437477  -0.100611
   57  F  4 ZZ    0.000000  -0.029075  -0.077677   0.480896   0.762526
   58  F  4 XY    0.224386   0.000000   0.000000  -0.000000  -0.000000
   59  F  4 XZ    0.000000   0.003606   0.591189  -0.682881  -0.311904
   60  F  4 YZ   -0.530261   0.000000   0.000000  -0.000000  -0.000000
   61  H  5  S    0.000000  -0.242701   0.225266   0.016163   0.255434
   62  H  5  S    0.000000   0.295011  -0.319215  -0.108437  -0.102756
   63  H  6  S    0.000000   0.242701  -0.225266   0.016163  -0.255434
   64  H  6  S    0.000000  -0.295011   0.319215  -0.108437   0.102756

                     61         62         63         64
                    4.3746     4.5236     4.7181     5.3108
                     A1         A1         B1         B1  
    1  C  1  S    0.101569  -0.311743   0.300592  -0.147362
    2  C  1  S   -0.764318   2.034525  -1.778323   0.733328
    3  C  1  X   -0.088414  -0.267849  -0.235653   0.017998
    4  C  1  Y    0.000000  -0.000000  -0.000000  -0.000000
    5  C  1  Z   -0.051983  -0.208359   0.136599  -0.322942
    6  C  1  S   -1.017989   0.260687  -2.149817  -1.566492
    7  C  1  X   -0.204242  -0.073040   0.392533   0.066975
    8  C  1  Y    0.000000  -0.000000  -0.000000  -0.000000
    9  C  1  Z   -0.586175  -0.409996  -0.604372  -2.969722
   10  C  1 XX    0.408214  -1.198656   1.561323  -0.906235
   11  C  1 YY    0.545582  -1.101462   1.102749  -0.345192
   12  C  1 ZZ    0.346031  -1.412996   1.268876  -0.825105
   13  C  1 XY    0.000000  -0.000000  -0.000000  -0.000000
   14  C  1 XZ   -0.022460  -0.138037   0.168097  -0.242420
   15  C  1 YZ    0.000000  -0.000000  -0.000000  -0.000000
   16  C  2  S    0.101569  -0.311743  -0.300592   0.147362
   17  C  2  S   -0.764318   2.034525   1.778323  -0.733328
   18  C  2  X    0.088414   0.267849  -0.235653   0.017998
   19  C  2  Y    0.000000  -0.000000  -0.000000  -0.000000
   20  C  2  Z   -0.051983  -0.208359  -0.136599   0.322942
   21  C  2  S   -1.017989   0.260687   2.149817   1.566492
   22  C  2  X    0.204242   0.073040   0.392533   0.066975
   23  C  2  Y    0.000000  -0.000000  -0.000000  -0.000000
   24  C  2  Z   -0.586175  -0.409996   0.604372   2.969722
   25  C  2 XX    0.408214  -1.198656  -1.561323   0.906235
   26  C  2 YY    0.545582  -1.101462  -1.102749   0.345192
   27  C  2 ZZ    0.346031  -1.412996  -1.268876   0.825105
   28  C  2 XY    0.000000  -0.000000  -0.000000  -0.000000
   29  C  2 XZ    0.022460   0.138037   0.168097  -0.242420
   30  C  2 YZ    0.000000  -0.000000  -0.000000  -0.000000
   31  F  3  S   -0.440262  -0.162550  -0.213443  -0.525041
   32  F  3  S   -1.248425  -0.555905  -0.600316  -2.127476
   33  F  3  X    0.103942   0.005569   0.078589   0.137103
   34  F  3  Y    0.000000  -0.000000  -0.000000  -0.000000
   35  F  3  Z    0.169101   0.021278   0.109331   0.178991
   36  F  3  S    5.524712   2.255430   2.787639   8.297786
   37  F  3  X   -0.399923  -0.314027  -0.093579  -0.878730
   38  F  3  Y    0.000000  -0.000000  -0.000000  -0.000000
   39  F  3  Z   -0.555713  -0.528047  -0.021926  -1.291435
   40  F  3 XX   -1.718009  -0.611266  -0.886538  -2.094792
   41  F  3 YY   -1.811634  -0.743185  -0.762954  -2.220444
   42  F  3 ZZ   -1.666981  -0.351552  -1.072484  -1.721660
   43  F  3 XY    0.000000  -0.000000  -0.000000  -0.000000
   44  F  3 XZ    0.144646   0.247436  -0.098154   0.391637
   45  F  3 YZ    0.000000  -0.000000  -0.000000  -0.000000
   46  F  4  S   -0.440262  -0.162550   0.213443   0.525041
   47  F  4  S   -1.248425  -0.555905   0.600316   2.127476
[...]
          -----------------
     TIME TO FORM FOCK OPERATORS=       0.0 SECONDS (       0.0 SEC/ITER)
     TIME TO SOLVE SCF EQUATIONS=       0.0 SECONDS (       0.0 SEC/ITER)

 FINAL RHF ENERGY IS     -275.7213048694 AFTER   5 ITERATIONS
 ...... END OF RHF CALCULATION ......
 STEP CPU TIME =     0.04 TOTAL CPU TIME =          8.5 (      0.1 MIN)
 TOTAL WALL CLOCK TIME=          8.5 SECONDS, CPU UTILIZATION IS    99.65%

 TRUDGE ENERGY VALUE AT NSTEP=  76 IS     -275.7213048694
 LOOKS =  1   ALF =  0.0005  FUNC =     -275.7213048694
             AMIN =  0.0000  FMIN =     -275.7213055940
            ANEXT =  0.0005 FNEXT =     -275.7213048694
 --------------------------------------------------------------
 INTERNAL COORDINATES (ANGSTROMS/DEGREE)
  I   BOND     ALPHA      BETA    SIGN ICONX   IATCON    INATOM
  1 0.6535111   0.00000   0.00000  1.0     1200120022003      2
  2 1.3241015 122.55409   0.00000  1.0     6   220012004      4
  3 1.0700454 123.02526 180.00000  1.0     6   220012004      6
 --------------------------------------------------------------
 ----- TRUDGE RESTART DATA AT NSTEP  77 --------
 $TRUDGE OPTMIZ=GEOMETRY  NPAR= 5
         IEX(1)=   11,   21,   22,   31,   32,
         P(1)=      0.653511,      1.324101,    122.554095,      1.070045,
                  123.025263,
 $END
 ...... END OF ONE-ELECTRON INTEGRALS ......
 STEP CPU TIME =     0.00 TOTAL CPU TIME =          8.5 (      0.1 MIN)
 TOTAL WALL CLOCK TIME=          8.5 SECONDS, CPU UTILIZATION IS    99.65%
 TOTAL NUMBER OF NONZERO TWO-ELECTRON INTEGRALS =              523387
         35 INTEGRAL RECORDS WERE STORED ON DISK FILE  8.
  ...... END OF TWO-ELECTRON INTEGRALS .....
 STEP CPU TIME =     0.06 TOTAL CPU TIME =          8.6 (      0.1 MIN)
 TOTAL WALL CLOCK TIME=          8.6 SECONDS, CPU UTILIZATION IS    99.65%

          --------------------------
                 RHF SCF CALCULATION
          --------------------------
     DENSITY MATRIX CONV=  1.00E-05

 ITER EX DEM     TOTAL ENERGY        E CHANGE  DENSITY CHANGE     ORB. GRAD
          ---------------START SECOND ORDER SCF---------------
   1  0  0     -275.7213038285  -275.7213038285   0.000314713   0.000227014
   2  1  0     -275.7213051168    -0.0000012884   0.000133868   0.000091819
   3  2  0     -275.7213052523    -0.0000001355   0.000060728   0.000031560
   4  3  0     -275.7213052639    -0.0000000116   0.000013609   0.000010307
   5  4  0     -275.7213052655    -0.0000000016   0.000006428   0.000002530
   6  5  0     -275.7213052656    -0.0000000001   0.000001160   0.000000690

          -----------------
          DENSITY CONVERGED
          -----------------
     TIME TO FORM FOCK OPERATORS=       0.0 SECONDS (       0.0 SEC/ITER)
     TIME TO SOLVE SCF EQUATIONS=       0.0 SECONDS (       0.0 SEC/ITER)

 FINAL RHF ENERGY IS     -275.7213052656 AFTER   6 ITERATIONS
 ...... END OF RHF CALCULATION ......
 STEP CPU TIME =     0.04 TOTAL CPU TIME =          8.6 (      0.1 MIN)
 TOTAL WALL CLOCK TIME=          8.6 SECONDS, CPU UTILIZATION IS    99.65%

 TRUDGE ENERGY VALUE AT NSTEP=  77 IS     -275.7213052656
 LOOKS =  2   ALF = -0.0005  FUNC =     -275.7213052656
             AMIN =  0.0000  FMIN =     -275.7213055940
            ANEXT = -0.0005 FNEXT =     -275.7213052656
 --------------------------------------------------------------
 INTERNAL COORDINATES (ANGSTROMS/DEGREE)
  I   BOND     ALPHA      BETA    SIGN ICONX   IATCON    INATOM
  1 0.6535120   0.00000   0.00000  1.0     1200120022003      2
  2 1.3242716 122.58180   0.00000  1.0     6   220012004      4
  3 1.0698119 123.04848 180.00000  1.0     6   220012004      6
 --------------------------------------------------------------
 ----- TRUDGE RESTART DATA AT NSTEP  78 --------
 $TRUDGE OPTMIZ=GEOMETRY  NPAR= 5
         IEX(1)=   11,   21,   22,   31,   32,
         P(1)=      0.653512,      1.324272,    122.581799,      1.069812,
                  123.048481,
 $END
 ...... END OF ONE-ELECTRON INTEGRALS ......
 STEP CPU TIME =     0.00 TOTAL CPU TIME =          8.6 (      0.1 MIN)
 TOTAL WALL CLOCK TIME=          8.6 SECONDS, CPU UTILIZATION IS    99.65%
 TOTAL NUMBER OF NONZERO TWO-ELECTRON INTEGRALS =              523333
         35 INTEGRAL RECORDS WERE STORED ON DISK FILE  8.
  ...... END OF TWO-ELECTRON INTEGRALS .....
 STEP CPU TIME =     0.05 TOTAL CPU TIME =          8.6 (      0.1 MIN)
 TOTAL WALL CLOCK TIME=          8.7 SECONDS, CPU UTILIZATION IS    99.54%

          --------------------------
                 RHF SCF CALCULATION
          --------------------------
     DENSITY MATRIX CONV=  1.00E-05

 ITER EX DEM     TOTAL ENERGY        E CHANGE  DENSITY CHANGE     ORB. GRAD
          ---------------START SECOND ORDER SCF---------------
   1  0  0     -275.7213053758  -275.7213053758   0.000127789   0.000091943
   2  1  0     -275.7213055881    -0.0000002123   0.000054697   0.000037391
   3  2  0     -275.7213056104    -0.0000000224   0.000024708   0.000012966
   4  3  0     -275.7213056124    -0.0000000019   0.000005500   0.000004120
   5  4  0     -275.7213056127    -0.0000000003   0.000002631   0.000001034

          -----------------
          DENSITY CONVERGED
          -----------------
     TIME TO FORM FOCK OPERATORS=       0.0 SECONDS (       0.0 SEC/ITER)
     TIME TO SOLVE SCF EQUATIONS=       0.0 SECONDS (       0.0 SEC/ITER)

 FINAL RHF ENERGY IS     -275.7213056127 AFTER   5 ITERATIONS
 ...... END OF RHF CALCULATION ......
 STEP CPU TIME =     0.04 TOTAL CPU TIME =          8.7 (      0.1 MIN)
 TOTAL WALL CLOCK TIME=          8.7 SECONDS, CPU UTILIZATION IS    99.66%

 TRUDGE ENERGY VALUE AT NSTEP=  78 IS     -275.7213056127
 LOOKS =  3   ALF = -0.0001  FUNC =     -275.7213056127
             AMIN = -0.0001  FMIN =     -275.7213056127
            ANEXT =  0.0000 FNEXT =     -275.7213055940
  NEW CURVATURE =  0.23008E+01   ALPHA =  -0.0000900
  OLD CURVATURE =  0.22892E+01   ALFSET=   0.0002392
 --------------------------------------------------------------
 INTERNAL COORDINATES (ANGSTROMS/DEGREE)
  I   BOND     ALPHA      BETA    SIGN ICONX   IATCON    INATOM
  1 0.6535724   0.00000   0.00000  1.0     1200120022003      2
  2 1.3233683 122.69373   0.00000  1.0     6   220012004      4
  3 1.0701708 122.99596 180.00000  1.0     6   220012004      6
 --------------------------------------------------------------
 ----- TRUDGE RESTART DATA AT NSTEP  79 --------
 $TRUDGE OPTMIZ=GEOMETRY  NPAR= 5
         IEX(1)=   11,   21,   22,   31,   32,
         P(1)=      0.653572,      1.323368,    122.693735,      1.070171,
                  122.995961,
 $END
 ...... END OF ONE-ELECTRON INTEGRALS ......
 STEP CPU TIME =     0.00 TOTAL CPU TIME =          8.7 (      0.1 MIN)
 TOTAL WALL CLOCK TIME=          8.7 SECONDS, CPU UTILIZATION IS    99.54%
 TOTAL NUMBER OF NONZERO TWO-ELECTRON INTEGRALS =              523194
         35 INTEGRAL RECORDS WERE STORED ON DISK FILE  8.
  ...... END OF TWO-ELECTRON INTEGRALS .....
 STEP CPU TIME =     0.06 TOTAL CPU TIME =          8.7 (      0.1 MIN)
 TOTAL WALL CLOCK TIME=          8.8 SECONDS, CPU UTILIZATION IS    99.66%

          --------------------------
                 RHF SCF CALCULATION
          --------------------------
     DENSITY MATRIX CONV=  1.00E-05

 ITER EX DEM     TOTAL ENERGY        E CHANGE  DENSITY CHANGE     ORB. GRAD
          ---------------START SECOND ORDER SCF---------------
   1  0  0     -275.7212997581  -275.7212997581   0.000403477   0.000476616
   2  1  0     -275.7213034115    -0.0000036535   0.000181277   0.000164386
   3  2  0     -275.7213037916    -0.0000003801   0.000082658   0.000040310
   4  3  0     -275.7213038093    -0.0000000177   0.000019480   0.000020440
   5  4  0     -275.7213038129    -0.0000000035   0.000007183   0.000002778
   6  5  0     -275.7213038131    -0.0000000002   0.000002653   0.000001032

          -----------------
          DENSITY CONVERGED
          -----------------
     TIME TO FORM FOCK OPERATORS=       0.0 SECONDS (       0.0 SEC/ITER)
     TIME TO SOLVE SCF EQUATIONS=       0.0 SECONDS (       0.0 SEC/ITER)

 FINAL RHF ENERGY IS     -275.7213038131 AFTER   6 ITERATIONS
 ...... END OF RHF CALCULATION ......
 STEP CPU TIME =     0.04 TOTAL CPU TIME =          8.8 (      0.1 MIN)
 TOTAL WALL CLOCK TIME=          8.8 SECONDS, CPU UTILIZATION IS    99.66%

 TRUDGE ENERGY VALUE AT NSTEP=  79 IS     -275.7213038131
 LOOKS =  1   ALF =  0.0013  FUNC =     -275.7213038131
             AMIN =  0.0000  FMIN =     -275.7213056127
            ANEXT =  0.0013 FNEXT =     -275.7213038131
 --------------------------------------------------------------
 INTERNAL COORDINATES (ANGSTROMS/DEGREE)
  I   BOND     ALPHA      BETA    SIGN ICONX   IATCON    INATOM
  1 0.6534517   0.00000   0.00000  1.0     1200120022003      2
  2 1.3251754 122.46997   0.00000  1.0     6   220012004      4
  3 1.0694532 123.10102 180.00000  1.0     6   220012004      6
 --------------------------------------------------------------
 ----- TRUDGE RESTART DATA AT NSTEP  80 --------
 $TRUDGE OPTMIZ=GEOMETRY  NPAR= 5
         IEX(1)=   11,   21,   22,   31,   32,
         P(1)=      0.653452,      1.325175,    122.469965,      1.069453,
                  123.101022,
 $END
 ...... END OF ONE-ELECTRON INTEGRALS ......
 STEP CPU TIME =     0.00 TOTAL CPU TIME =          8.8 (      0.1 MIN)
 TOTAL WALL CLOCK TIME=          8.8 SECONDS, CPU UTILIZATION IS    99.66%
 TOTAL NUMBER OF NONZERO TWO-ELECTRON INTEGRALS =              523469
         35 INTEGRAL RECORDS WERE STORED ON DISK FILE  8.
  ...... END OF TWO-ELECTRON INTEGRALS .....
 STEP CPU TIME =     0.05 TOTAL CPU TIME =          8.8 (      0.1 MIN)
 TOTAL WALL CLOCK TIME=          8.9 SECONDS, CPU UTILIZATION IS    99.55%

          --------------------------
                 RHF SCF CALCULATION
          --------------------------
     DENSITY MATRIX CONV=  1.00E-05

 ITER EX DEM     TOTAL ENERGY        E CHANGE  DENSITY CHANGE     ORB. GRAD
          ---------------START SECOND ORDER SCF---------------
   1  0  0     -275.7212861031  -275.7212861031   0.000802297   0.000950072
   2  1  0     -275.7213006825    -0.0000145794   0.000364189   0.000331530
   3  2  0     -275.7213022111    -0.0000015286   0.000166668   0.000082656
   4  3  0     -275.7213022852    -0.0000000742   0.000038989   0.000040728
   5  4  0     -275.7213022995    -0.0000000143   0.000014659   0.000005633
   6  5  0     -275.7213023004    -0.0000000009   0.000005388   0.000002105
   7  6  0     -275.7213023005    -0.0000000001   0.000000835   0.000000524

          -----------------
          DENSITY CONVERGED
          -----------------
     TIME TO FORM FOCK OPERATORS=       0.0 SECONDS (       0.0 SEC/ITER)
     TIME TO SOLVE SCF EQUATIONS=       0.0 SECONDS (       0.0 SEC/ITER)

 FINAL RHF ENERGY IS     -275.7213023005 AFTER   7 ITERATIONS
 ...... END OF RHF CALCULATION ......
 STEP CPU TIME =     0.05 TOTAL CPU TIME =          8.9 (      0.1 MIN)
 TOTAL WALL CLOCK TIME=          8.9 SECONDS, CPU UTILIZATION IS    99.55%

 TRUDGE ENERGY VALUE AT NSTEP=  80 IS     -275.7213023005
 LOOKS =  2   ALF = -0.0013  FUNC =     -275.7213023005
             AMIN =  0.0000  FMIN =     -275.7213056127
            ANEXT =  0.0013 FNEXT =     -275.7213038131
 --------------------------------------------------------------
 INTERNAL COORDINATES (ANGSTROMS/DEGREE)
  I   BOND     ALPHA      BETA    SIGN ICONX   IATCON    INATOM
  1 0.6535210   0.00000   0.00000  1.0     1200120022003      2
  2 1.3241379 122.59835   0.00000  1.0     6   220012004      4
  3 1.0698650 123.04071 180.00000  1.0     6   220012004      6
 --------------------------------------------------------------
 ----- TRUDGE RESTART DATA AT NSTEP  81 --------
 $TRUDGE OPTMIZ=GEOMETRY  NPAR= 5
         IEX(1)=   11,   21,   22,   31,   32,
         P(1)=      0.653521,      1.324138,    122.598354,      1.069865,
                  123.040709,
 $END
 ...... END OF ONE-ELECTRON INTEGRALS ......
 STEP CPU TIME =     0.00 TOTAL CPU TIME =          8.9 (      0.1 MIN)
 TOTAL WALL CLOCK TIME=          8.9 SECONDS, CPU UTILIZATION IS    99.55%
 TOTAL NUMBER OF NONZERO TWO-ELECTRON INTEGRALS =              523302
         35 INTEGRAL RECORDS WERE STORED ON DISK FILE  8.
  ...... END OF TWO-ELECTRON INTEGRALS .....
 STEP CPU TIME =     0.06 TOTAL CPU TIME =          8.9 (      0.1 MIN)
 TOTAL WALL CLOCK TIME=          9.0 SECONDS, CPU UTILIZATION IS    99.67%

          --------------------------
                 RHF SCF CALCULATION
          --------------------------
     DENSITY MATRIX CONV=  1.00E-05

 ITER EX DEM     TOTAL ENERGY        E CHANGE  DENSITY CHANGE     ORB. GRAD
          ---------------START SECOND ORDER SCF---------------
   1  0  0     -275.7213003397  -275.7213003397   0.000461102   0.000545167
   2  1  0     -275.7213051404    -0.0000048007   0.000208136   0.000188344
   3  2  0     -275.7213056402    -0.0000004998   0.000095223   0.000046762
   4  3  0     -275.7213056639    -0.0000000237   0.000022294   0.000023468
   5  4  0     -275.7213056686    -0.0000000047   0.000008260   0.000003198
   6  5  0     -275.7213056688    -0.0000000003   0.000003068   0.000001187

          -----------------
          DENSITY CONVERGED
          -----------------
     TIME TO FORM FOCK OPERATORS=       0.0 SECONDS (       0.0 SEC/ITER)
     TIME TO SOLVE SCF EQUATIONS=       0.0 SECONDS (       0.0 SEC/ITER)

 FINAL RHF ENERGY IS     -275.7213056688 AFTER   6 ITERATIONS
 ...... END OF RHF CALCULATION ......
 STEP CPU TIME =     0.04 TOTAL CPU TIME =          9.0 (      0.1 MIN)
 TOTAL WALL CLOCK TIME=          9.0 SECONDS, CPU UTILIZATION IS    99.67%

 TRUDGE ENERGY VALUE AT NSTEP=  81 IS     -275.7213056688
 LOOKS =  3   ALF =  0.0002  FUNC =     -275.7213056688
             AMIN =  0.0002  FMIN =     -275.7213056688
            ANEXT =  0.0000 FNEXT =     -275.7213056127
  NEW CURVATURE =  0.15956E+01   ALPHA =   0.0001873
 F=     -275.7213056688 DELTA F=0.33684E-05 DELTA R=0.64976E-03
 --------------------------------------------------------------
 INTERNAL COORDINATES (ANGSTROMS/DEGREE)
  I   BOND     ALPHA      BETA    SIGN ICONX   IATCON    INATOM
  1 0.6535210   0.00000   0.00000  1.0     1200120022003      2
  2 1.3241379 122.59835   0.00000  1.0     6   220012004      4
  3 1.0698650 123.04071 180.00000  1.0     6   220012004      6
 --------------------------------------------------------------
 ----- TRUDGE RESTART DATA AT NSTEP  82 --------
 $TRUDGE OPTMIZ=GEOMETRY  NPAR= 5
         IEX(1)=   11,   21,   22,   31,   32,
         P(1)=      0.653521,      1.324138,    122.598354,      1.069865,
                  123.040709,
 $END
 ...... END OF ONE-ELECTRON INTEGRALS ......
 STEP CPU TIME =     0.00 TOTAL CPU TIME =          9.0 (      0.1 MIN)
 TOTAL WALL CLOCK TIME=          9.0 SECONDS, CPU UTILIZATION IS    99.67%
 TOTAL NUMBER OF NONZERO TWO-ELECTRON INTEGRALS =              523302
         35 INTEGRAL RECORDS WERE STORED ON DISK FILE  8.
  ...... END OF TWO-ELECTRON INTEGRALS .....
 STEP CPU TIME =     0.05 TOTAL CPU TIME =          9.0 (      0.2 MIN)
 TOTAL WALL CLOCK TIME=          9.1 SECONDS, CPU UTILIZATION IS    99.56%

          --------------------------
                 RHF SCF CALCULATION
          --------------------------
     DENSITY MATRIX CONV=  1.00E-05

 ITER EX DEM     TOTAL ENERGY        E CHANGE  DENSITY CHANGE     ORB. GRAD
          ---------------START SECOND ORDER SCF---------------
   1  0  0     -275.7213056689  -275.7213056689   0.000000987   0.000000543
   2  1  0     -275.7213056689    -0.0000000000   0.000000889   0.000000276

          -----------------
          DENSITY CONVERGED
          -----------------
     TIME TO FORM FOCK OPERATORS=       0.0 SECONDS (       0.0 SEC/ITER)
     TIME TO SOLVE SCF EQUATIONS=       0.0 SECONDS (       0.0 SEC/ITER)

 FINAL RHF ENERGY IS     -275.7213056689 AFTER   2 ITERATIONS
 ...... END OF RHF CALCULATION ......
 STEP CPU TIME =     0.03 TOTAL CPU TIME =          9.1 (      0.2 MIN)
 TOTAL WALL CLOCK TIME=          9.1 SECONDS, CPU UTILIZATION IS    99.78%

 TRUDGE ENERGY VALUE AT NSTEP=  82 IS     -275.7213056689

 NON-GRADIENT ENERGY MINIMIZATION  ...  CONVERGED

 CONJUGATE DIRECTION =     2
 PARAMETER =     1
 VALUE OF THE FUNCTION =      -275.7213056689
                  FNOT =      -275.7213056688
 $TRURST KSTART= 2  JSTART= 1  TOLF=  0.000100 TOLR=  0.001000
         FNOISE=  0.000010  FNOT=-275.721305669
         RNOT(1)= -0.024903 -0.004417  0.021422 -0.009429  0.025024

         CURV(1)=  2.300848  0.716441  1.928975  2.372948  3.310970

         ALPH(1)=  0.000239  0.000984  0.001563  0.000781  0.001563

            V(1)=  0.003514  0.330730  0.582013 -0.561935  0.485896

                   0.000912 -0.023530 -0.484230  0.217205  0.847224
                   0.000060 -0.004995 -0.615350 -0.773121 -0.153634
                  -0.999992 -0.000326  0.001908 -0.002131  0.002704
                  -0.001554  0.943419 -0.219369  0.198319 -0.150020
 $END
 --------------------------------------------------------------
 INTERNAL COORDINATES (ANGSTROMS/DEGREE)
  I   BOND     ALPHA      BETA    SIGN ICONX   IATCON    INATOM
  1 0.6535210   0.00000   0.00000  1.0     1200120022003      2
  2 1.3241379 122.59835   0.00000  1.0     6   220012004      4
  3 1.0698650 123.04071 180.00000  1.0     6   220012004      6
 --------------------------------------------------------------
 COORDINATES OF ALL ATOMS ARE (ANGS)
   ATOM   CHARGE       X              Y              Z
 ------------------------------------------------------------
 C           6.0   0.6535209692   0.0000000000   0.0000000000
 C           6.0  -0.6535209692   0.0000000000   0.0000000000
 F           9.0   1.3668957237   0.0000000000   1.1155436327
 F           9.0  -1.3668957237   0.0000000000   1.1155436327
 H           1.0   1.2368485885   0.0000000000  -0.8968500830
 H           1.0  -1.2368485885   0.0000000000  -0.8968500830

          INTERNUCLEAR DISTANCES (ANGS.)
          ------------------------------

                1 C          2 C          3 F          4 F          5 H     

   1 C       0.0000000    1.3070419 *  1.3241379 *  2.3079257 *  1.0698650 *
   2 C       1.3070419 *  0.0000000    2.3079257 *  1.3241379 *  2.0923282 *
   3 F       1.3241379 *  2.3079257 *  0.0000000    2.7337914 *  2.0165914 *
   4 F       2.3079257 *  1.3241379 *  2.7337914 *  0.0000000    3.2907769  
   5 H       1.0698650 *  2.0923282 *  2.0165914 *  3.2907769    0.0000000  
   6 H       2.0923282 *  1.0698650 *  3.2907769    2.0165914 *  2.4736972 *

                6 H     

   1 C       2.0923282 *
   2 C       1.0698650 *
   3 F       3.2907769  
   4 F       2.0165914 *
   5 H       2.4736972 *
   6 H       0.0000000  

  * ... LESS THAN  3.000

 ...... END OF NON-GRADIENT ENERGY MINIMIZATION ......
 STEP CPU TIME =     0.00 TOTAL CPU TIME =          9.1 (      0.2 MIN)
 TOTAL WALL CLOCK TIME=          9.1 SECONDS, CPU UTILIZATION IS    99.78%
               580000  WORDS OF DYNAMIC MEMORY USED
 EXECUTION OF GAMESS TERMINATED NORMALLY Thu Apr 18 14:31:06 2019
 DDI: 263640 bytes (0.3 MB / 0 MWords) used by master data server.

 ----------------------------------------
 CPU timing information for all processes
 ========================================
 0: 7.952 + 1.40 = 8.992
 ----------------------------------------
Note: The following floating-point exceptions are signalling: IEEE_DENORMAL
 ddikick.x: exited gracefully.
unset echo
----- accounting info -----
Files used on the master node neutron were:
-rw-rw-r-- 1 ericg ericg 5600712 Apr 18 14:31 /home/ericg/scr/tutdel.dat
-rw-rw-r-- 1 ericg ericg     579 Apr 18 14:30 /home/ericg/scr/tutdel.F05
-rw-rw-r-- 1 ericg ericg 6300560 Apr 18 14:31 /home/ericg/scr/tutdel.F08
-rw-rw-r-- 1 ericg ericg 1636000 Apr 18 14:31 /home/ericg/scr/tutdel.F10
ls: No match.
ls: No match.
ls: No match.
Thu Apr 18 14:31:09 EDT 2019
0.107u 0.015s 0:12.22 0.9%	0+0k 8+24io 0pf+0w
